
:LABEL1: Calculations in /home/shi/wien2k_calc/Final/MgO_LDA
:LABEL2: on kohn at Sat 26 Dec 14:06:26 GMT 2020
:LABEL3: using WIEN2k_19.1 (Release 25/6/2019) in /home/shi/WIEN2k/WIEN2k_19.2
:LABEL4: using the command: run_lapw -ec 0.00001 -NI
 Flat Integration
 New Mode for Coulomb Integral
 Consistent 3/8+Simpson combinations
 Extension of core to zero
 LDM version in phi
 Fifth-order quadrature in outwin


            ---------
:ITE001:  1. ITERATION
            ---------

:NATO :    2 INDEPENDENT AND    2 TOTAL ATOMS IN UNITCELL
       SUBSTANCE: MgO_convergence                                             

       LATTICE                      = F   
:POT  : POTENTIAL OPTION EX_LDA EC_LDA VX_LDA VC_LDA
:LAT  : LATTICE CONSTANTS=  7.95801  7.95801  7.95801    1.571    1.571    1.571
:VOL  : UNIT CELL VOLUME =     125.99528
       MODE OF CALCULATION IS       = RELA
       NON-SPINPOLARIZED CALCULATION
:IFFT  : FFT-parameters:   64   64   64 Factor: 2.00


   CONVERGENCE PARAMETER FOR PSEUDOCHARGE: NCON=  9
   MAXIMAL VALUE OF RMT(JATOM)*ABSK(NKK) : RK  =23.60520


:VKCOUL :  VK-COUL convergence: 0.546E-05
       ATOMNUMBER=  1 Mg1        VCOUL-ZERO =  0.22627E+00
       ATOMNUMBER=  2 O 1        VCOUL-ZERO =  0.39603E+00
:FIT001: LUSE= 13 SIGMA OF V-XC FIT FOR ATOM  1  0.1501663E-02
:FIT001: LUSE= 13 SIGMA OF V-XC FIT FOR ATOM  1  0.1501663E-02
:FIT002: LUSE= 13 SIGMA OF V-XC FIT FOR ATOM  2  0.5630218E-04
:FIT002: LUSE= 13 SIGMA OF V-XC FIT FOR ATOM  2  0.5630218E-04
:DEN  : DENSITY INTEGRAL  =          -265.96549879   (Ry)
       ELS_POTENTIAL_AT Z=0 and Z=0.5:  -1.99611  -1.99611
       ELS_POTENTIAL_AT Y=0 and Y=0.5:   0.00000   0.00000
:VZERO:v0,v0c,v0x  -3.05267  -1.99611  -1.05655 v5,v5c,v5x  -3.05267  -1.99611  -1.05655
:VZERY:v0,v0c,v0x  -0.78505   0.00000  -0.78505 v5,v5c,v5x  -0.78505   0.00000  -0.78505
:VZERX:v0,v0c,v0x  -0.78505   0.00000  -0.78505 v5,v5c,v5x  -0.78505   0.00000  -0.78505
:LMAX-WF:   10   Non-Spherical LMAX:   4

          ATOMIC SPHERE DEPENDENT PARAMETERS FOR ATOM  Mg1       
:e__0001: OVERALL ENERGY PARAMETER IS    0.3000
          OVERALL BASIS SET ON ATOM IS LAPW
:E0_0001: E( 0)=    0.3000
             APW+lo
:E0_0001: E( 0)=   -4.9014   E(BOTTOM)=   -4.969   E(TOP)=   -4.834  1  2   161
             LOCAL ORBITAL
:E1_0001: E( 1)=    0.3000
             APW+lo
:E1_0001: E( 1)=   -2.5245   E(BOTTOM)=   -2.644   E(TOP)=   -2.405  0  1   161
             LOCAL ORBITAL

          ATOMIC SPHERE DEPENDENT PARAMETERS FOR ATOM  O 1       
:e__0002: OVERALL ENERGY PARAMETER IS    0.3000
          OVERALL BASIS SET ON ATOM IS LAPW
:E0_0002: E( 0)=    0.7000
             APW+lo
:E0_0002: E( 0)=   -1.1258   E(BOTTOM)=   -1.721   E(TOP)=   -0.530  1  2   162
             LOCAL ORBITAL
:E1_0002: E( 1)=    0.3000
             APW+lo

       K=   0.00000   0.00000   0.00000            1
:RKM  : MATRIX SIZE   194LOs:  13  RKM= 8.84  WEIGHT= 1.00  PGR:    
       EIGENVALUES ARE:
:EIG00001:      -4.8867080   -2.4921965   -2.4921965   -2.4921965   -1.1657799
:EIG00006:       0.0561717    0.0561717    0.0561717    0.5389316    1.3871817
:EIG00011:       1.3871817    1.3871817    1.6874344    1.7991227    1.7991227
       ********************************************************

:KPT   :      NUMBER OF K-POINTS:    72
       Insulator, EF-inconsistency corrected
:GAP (global)   :  0.482760 Ry =     6.568 eV (accurate value if proper k-mesh)
         Bandranges (emin - emax) and occupancy:
:BAN00001:   1   -4.886708   -4.885553  2.00000000
:BAN00002:   2   -2.500259   -2.492196  2.00000000
:BAN00003:   3   -2.496443   -2.492196  2.00000000
:BAN00004:   4   -2.495137   -2.492196  2.00000000
:BAN00005:   5   -1.165780   -1.069483  2.00000000
:BAN00006:   6   -0.208815    0.056172  2.00000000
:BAN00007:   7   -0.113137    0.056172  2.00000000
:BAN00008:   8   -0.042460    0.056172  2.00000000
:BAN00009:   9    0.538932    1.024821  0.00000000
:BAN00010:  10    0.928049    1.387182  0.00000000
:BAN00011:  11    1.065371    1.448379  0.00000000
:BAN00012:  12    1.355957    1.581750  0.00000000
:BAN00013:  13    1.487126    1.830042  0.00000000
        Energy to separate low and high energystates:   -0.25881


:NOE  : NUMBER OF ELECTRONS          =   16.000

:FER  : F E R M I - ENERGY(TETRAH.M.)=   0.0561716828
:GMA  : POTENTIAL AND CHARGE CUT-OFF  12.00 Ry**.5

:POS001: ATOM    1 X,Y,Z = 0.00000 0.00000 0.00000  MULT= 1  ZZ= 12.000  Mg1       

       LMMAX  5
       LM=   0 0  4 0  4 4  6 0  6 4

:CHA001: TOTAL VALENCE CHARGE INSIDE SPHERE   1 =   8.2781    (RMT=  1.9800 )
:PCS001: PARTIAL CHARGES SPHERE =  1 S,P,D,F,      D-EG,D-T2G 
:QTL001: 2.1004 6.0888 0.0709 0.0143 0.0000 0.0000 0.0000 0.0535 0.0174 0.0000 0.0000 0.0000
        Q-s-low E-s-low   Q-p-low E-p-low   Q-d-low E-d-low   Q-f-low E-f-low
:EPL001:  2.0074 -4.8609    5.9665 -2.4900    0.0086 -1.0825    0.0021 -1.0944
        Q-s-hi  E-s-hi    Q-p-hi  E-p-hi    Q-d-hi  E-d-hi    Q-f-hi  E-f-hi 
:EPH001:  0.0929 -0.1307    0.1224 -0.0706    0.0623 -0.0367    0.0123 -0.0225

:POS002: ATOM    2 X,Y,Z = 0.50000 0.00000 0.00000  MULT= 1  ZZ=  8.000  O 1       

       LMMAX  5
       LM=   0 0  4 0  4 4  6 0  6 4

:CHA002: TOTAL VALENCE CHARGE INSIDE SPHERE   2 =   6.6034    (RMT=  1.9800 )
:PCS002: PARTIAL CHARGES SPHERE =  2 S,P,D,F,      D-EG,D-T2G 
:QTL002: 1.8176 4.7751 0.0078 0.0020 0.0000 0.0000 0.0000 0.0034 0.0044 0.0000 0.0000 0.0000
        Q-s-low E-s-low   Q-p-low E-p-low   Q-d-low E-d-low   Q-f-low E-f-low
:EPL002:  1.7981 -1.0944    0.0061 -2.2957    0.0025 -2.5852    0.0011 -2.6745
        Q-s-hi  E-s-hi    Q-p-hi  E-p-hi    Q-d-hi  E-d-hi    Q-f-hi  E-f-hi 
:EPH002:  0.0195 -0.1062    4.7690 -0.0472    0.0053 -0.0621    0.0009 -0.0342

:CHA  : TOTAL VALENCE CHARGE INSIDE UNIT CELL =      16.000000

:SUM  : SUM OF EIGENVALUES =         -27.248862011



   QTL-B VALUE .EQ.    3.57476   in Band of energy   -0.20881   ATOM=    2   L=  1
    Most likely no ghostbands, but adjust Energy-parameters for this ATOM and L


:WARN : QTL-B value eq.   3.57 in Band of energy  -0.20881  ATOM=    2  L=  1
:WARN : You should change the E-parameter for this atom and L-value in case.in1 (or try the -in1new switch)

        1.ATOM      Mg1                   1 CORE STATES
:1S 001: 1S                 -91.160528282 Ry

        2.ATOM      O 1                   1 CORE STATES
:1S 002: 1S                 -36.750513197 Ry
:CINT001 Core Integral Atom   1    2.000000
:CINT002 Core Integral Atom   2    2.000000

       DENSITY AT NUCLEUS
        JATOM        VALENCE       SEMI-CORE          CORE           TOTAL
:RTO001:   1       69.631009        0.000000     1070.092895     1139.723904
:RTO002:   2       15.574597        0.000000      299.290315      314.864911
     
       CHARGES OF NEW CHARGE DENSITY
:NTO   : INTERSTITIAL CHARGE =     1.118504
:NPC   : PW Pseudocharge     =     5.341736
:NTO001: CHARGE SPHERE  1    =    10.278098
:NTO002: CHARGE SPHERE  2    =     8.603393

:NEC01: NUCLEAR AND ELECTRONIC CHARGE     20.00000    19.99999
     
       CHARGES OF OLD CHARGE DENSITY
:OTO   : INTERSTITIAL CHARGE =     1.623704
:OPC   : PW Pseudocharge     =     4.222197
:OTO001: CHARGE SPHERE  1    =    10.596452
:OTO002: CHARGE SPHERE  2    =     7.779980

:NEC02: NUCLEAR AND ELECTRONIC CHARGE     20.00000    20.00014
     
       CONVERGENCE TEST
:DTO001: DIFFERENCE IN SPHERE  1 =  0.2486081
:DTO002: DIFFERENCE IN SPHERE  2 =  0.8313294

:DIS  :  CHARGE DISTANCE       ( 0.8313294 for atom    2 spin 1)      0.5399688
 PW Mixed is           65
 
******************************************************
* MULTISECANT MIXING VER9 RELEASE 10.4.0              *
* Standard Mode with controls                        *
* Fixed density scale                                *
* Regularization       1.000E-04                     *
* Trust Upper Limit    5.000E+00                     *
* Max Number of Memory Steps    8                    *
******************************************************
 
:PWTMP   6.0965E+01  1.2800E+02  1.2600E+02
:PLANE:  PW TOTAL      1.5921 DISTAN   7.48E-01  4.70E+01 %
:CHARG:  CLM/ATOM     35.1762 DISTAN   4.35E-01  1.24E+00 %
 
Step History
        DMIX         DMIXT        Red     Pred      Trust     Lambda    MagRel    MagAbs     Beta
  1   3.5000E-02   3.5000E-02 -1.00E+00  1.00E+00 -1.00E+01  1.00E+00  3.50E-02  3.50E-02  1.00E+00
:INFO :  Note, Pratt in use
:TRUST:  Step 5.25E-02  Charge 7.50E-02 (e) CTO  2.50E-01 (e) PW  3.50E-01 (e)
:DIRM :  MEMORY  0/ 8 SCALE   1.000
Performing Pseudo Compensation
Final Pseudo Compensation Rescaling     9.99809E-01
:MIX  :   PRATT  REGULARIZATION:  1.00E-04 GREED: 0.03500                  
     
       CHARGES OF MIXED CHARGE DENSITY
:CTO   : INTERSTITIAL CHARGE =     1.605891
:CPC   : PW Pseudocharge     =     5.109057
:CTO001: CHARGE SPHERE  1    =    10.585310
:CTO002: CHARGE SPHERE  2    =     7.808800

:NEC03: NUCLEAR AND ELECTRONIC CHARGE     20.00000    20.00000

PW CHANGE     H    K    L      Current       Change    Residue
:PTO001:      0    0    0  5.32952306E-02  6.901E-03  4.880E-03
:PTO002:     -1   -1   -1 -8.18829252E-02 -2.321E-02 -3.507E-02
:PTO003:      0    0   -2  8.88051248E-02  2.919E-02  4.580E-02
:PTO004:      0   -2   -2  7.52147141E-02  3.793E-02  4.408E-02
:PTO005:     -1   -1   -3 -2.61009575E-02 -2.020E-02 -1.002E-02
:PTO006:     -2   -2   -2  2.17362182E-02  1.572E-02  1.366E-02
:PTO007:      0    0   -4  6.49169882E-03  6.870E-03  5.486E-03
:PTO008:     -1   -3   -3  7.13236350E-03 -3.915E-03 -2.043E-03
:PTO009:      0   -2   -4  7.39402571E-03  1.397E-02  5.889E-03
:PTO010:     -2   -2   -4 -9.78339920E-04  5.214E-03 -2.091E-03
:PTO011:     -3   -3   -3  2.36076252E-03  1.276E-04  5.104E-05
:PTO012:     -1   -1   -5  7.05712267E-03  3.578E-04 -5.659E-04

:ENE  : *WARNING** TOTAL ENERGY IN Ry =         -549.03644376

 Flat Integration
 New Mode for Coulomb Integral
 Consistent 3/8+Simpson combinations
 Extension of core to zero
 LDM version in phi
 Fifth-order quadrature in outwin


            ---------
:ITE002:  2. ITERATION
            ---------

:NATO :    2 INDEPENDENT AND    2 TOTAL ATOMS IN UNITCELL
       SUBSTANCE: MgO_convergence                                             

       LATTICE                      = F   
:POT  : POTENTIAL OPTION EX_LDA EC_LDA VX_LDA VC_LDA
:LAT  : LATTICE CONSTANTS=  7.95801  7.95801  7.95801    1.571    1.571    1.571
:VOL  : UNIT CELL VOLUME =     125.99528
       MODE OF CALCULATION IS       = RELA
       NON-SPINPOLARIZED CALCULATION
:IFFT  : FFT-parameters:   64   64   64 Factor: 2.00


   CONVERGENCE PARAMETER FOR PSEUDOCHARGE: NCON=  9
   MAXIMAL VALUE OF RMT(JATOM)*ABSK(NKK) : RK  =23.60520


:VKCOUL :  VK-COUL convergence: 0.104E-05
       ATOMNUMBER=  1 Mg1        VCOUL-ZERO =  0.23334E+00
       ATOMNUMBER=  2 O 1        VCOUL-ZERO =  0.40873E+00
:FIT001: LUSE= 13 SIGMA OF V-XC FIT FOR ATOM  1  0.1592607E-02
:FIT001: LUSE= 13 SIGMA OF V-XC FIT FOR ATOM  1  0.1592607E-02
:FIT002: LUSE= 13 SIGMA OF V-XC FIT FOR ATOM  2  0.5690244E-04
:FIT002: LUSE= 13 SIGMA OF V-XC FIT FOR ATOM  2  0.5690244E-04
:DEN  : DENSITY INTEGRAL  =          -266.27715737   (Ry)
       ELS_POTENTIAL_AT Z=0 and Z=0.5:  -2.07217  -2.07217
       ELS_POTENTIAL_AT Y=0 and Y=0.5:   0.00000   0.00000
:VZERO:v0,v0c,v0x  -3.22910  -2.07217  -1.15692 v5,v5c,v5x  -3.22910  -2.07217  -1.15692
:VZERY:v0,v0c,v0x  -0.80131   0.00000  -0.80131 v5,v5c,v5x  -0.80131   0.00000  -0.80131
:VZERX:v0,v0c,v0x  -0.80131   0.00000  -0.80131 v5,v5c,v5x  -0.80131   0.00000  -0.80131
:LMAX-WF:   10   Non-Spherical LMAX:   4

          ATOMIC SPHERE DEPENDENT PARAMETERS FOR ATOM  Mg1       
:e__0001: OVERALL ENERGY PARAMETER IS    0.1000
          OVERALL BASIS SET ON ATOM IS LAPW
:E0_0001: E( 0)=    0.1000
             APW+lo
:E0_0001: E( 0)=   -4.8993   E(BOTTOM)=   -4.967   E(TOP)=   -4.832  1  2   163
             LOCAL ORBITAL
:E1_0001: E( 1)=    0.1000
             APW+lo
:E1_0001: E( 1)=   -2.5224   E(BOTTOM)=   -2.642   E(TOP)=   -2.403  0  1   160
             LOCAL ORBITAL

          ATOMIC SPHERE DEPENDENT PARAMETERS FOR ATOM  O 1       
:e__0002: OVERALL ENERGY PARAMETER IS    0.1000
          OVERALL BASIS SET ON ATOM IS LAPW
:E0_0002: E( 0)=    0.5000
             APW+lo
:E0_0002: E( 0)=   -1.0958   E(BOTTOM)=   -1.695   E(TOP)=   -0.497  1  2   155
             LOCAL ORBITAL
:E1_0002: E( 1)=    0.1000
             APW+lo

       K=   0.00000   0.00000   0.00000            1
:RKM  : MATRIX SIZE   194LOs:  13  RKM= 8.84  WEIGHT= 1.00  PGR:    
       EIGENVALUES ARE:
:EIG00001:      -4.8846672   -2.4902303   -2.4902303   -2.4902303   -1.1392393
:EIG00006:       0.0855467    0.0855467    0.0855467    0.5542290    1.3982874
:EIG00011:       1.3982874    1.3982874    1.6972087
       ********************************************************

:KPT   :      NUMBER OF K-POINTS:    72
       Insulator, EF-inconsistency corrected
:GAP (global)   :  0.468682 Ry =     6.377 eV (accurate value if proper k-mesh)
         Bandranges (emin - emax) and occupancy:
:BAN00001:   1   -4.884667   -4.883547  2.00000000
:BAN00002:   2   -2.498119   -2.490230  2.00000000
:BAN00003:   3   -2.494522   -2.490230  2.00000000
:BAN00004:   4   -2.493076   -2.490230  2.00000000
:BAN00005:   5   -1.139239   -1.040586  2.00000000
:BAN00006:   6   -0.187103    0.085547  2.00000000
:BAN00007:   7   -0.089134    0.085547  2.00000000
:BAN00008:   8   -0.016096    0.085547  2.00000000
:BAN00009:   9    0.554229    1.043284  0.00000000
:BAN00010:  10    0.943216    1.398287  0.00000000
:BAN00011:  11    1.085903    1.459957  0.00000000
:BAN00012:  12    1.368290    1.603668  0.00000000
:BAN00013:  13    1.503388    1.791895  0.00000000
        Energy to separate low and high energystates:   -0.23710


:NOE  : NUMBER OF ELECTRONS          =   16.000

:FER  : F E R M I - ENERGY(TETRAH.M.)=   0.0855467401
:GMA  : POTENTIAL AND CHARGE CUT-OFF  12.00 Ry**.5

:POS001: ATOM    1 X,Y,Z = 0.00000 0.00000 0.00000  MULT= 1  ZZ= 12.000  Mg1       

       LMMAX  5
       LM=   0 0  4 0  4 4  6 0  6 4

:CHA001: TOTAL VALENCE CHARGE INSIDE SPHERE   1 =   8.2881    (RMT=  1.9800 )
:PCS001: PARTIAL CHARGES SPHERE =  1 S,P,D,F,      D-EG,D-T2G 
:QTL001: 2.1039 6.0932 0.0727 0.0145 0.0000 0.0000 0.0000 0.0547 0.0180 0.0000 0.0000 0.0000
        Q-s-low E-s-low   Q-p-low E-p-low   Q-d-low E-d-low   Q-f-low E-f-low
:EPL001:  2.0078 -4.8580    5.9672 -2.4878    0.0088 -1.0539    0.0021 -1.0662
        Q-s-hi  E-s-hi    Q-p-hi  E-p-hi    Q-d-hi  E-d-hi    Q-f-hi  E-f-hi 
:EPH001:  0.0961 -0.1068    0.1260 -0.0450    0.0640 -0.0102    0.0125  0.0045

:POS002: ATOM    2 X,Y,Z = 0.50000 0.00000 0.00000  MULT= 1  ZZ=  8.000  O 1       

       LMMAX  5
       LM=   0 0  4 0  4 4  6 0  6 4

:CHA002: TOTAL VALENCE CHARGE INSIDE SPHERE   2 =   6.5675    (RMT=  1.9800 )
:PCS002: PARTIAL CHARGES SPHERE =  2 S,P,D,F,      D-EG,D-T2G 
:QTL002: 1.8147 4.7418 0.0081 0.0020 0.0000 0.0000 0.0000 0.0034 0.0046 0.0000 0.0000 0.0000
        Q-s-low E-s-low   Q-p-low E-p-low   Q-d-low E-d-low   Q-f-low E-f-low
:EPL002:  1.7940 -1.0662    0.0060 -2.2670    0.0025 -2.5743    0.0011 -2.6690
        Q-s-hi  E-s-hi    Q-p-hi  E-p-hi    Q-d-hi  E-d-hi    Q-f-hi  E-f-hi 
:EPH002:  0.0207 -0.0816    4.7358 -0.0207    0.0056 -0.0361    0.0009 -0.0075

:CHA  : TOTAL VALENCE CHARGE INSIDE UNIT CELL =      16.000000

:SUM  : SUM OF EIGENVALUES =         -27.020268484


        1.ATOM      Mg1                   1 CORE STATES
:1S 001: 1S                 -91.161367737 Ry

        2.ATOM      O 1                   1 CORE STATES
:1S 002: 1S                 -36.699904288 Ry
:CINT001 Core Integral Atom   1    2.000000
:CINT002 Core Integral Atom   2    2.000000

       DENSITY AT NUCLEUS
        JATOM        VALENCE       SEMI-CORE          CORE           TOTAL
:RTO001:   1       69.697229        0.000000     1070.100810     1139.798040
:RTO002:   2       15.476434        0.000000      299.274172      314.750605
     
       CHARGES OF NEW CHARGE DENSITY
:NTO   : INTERSTITIAL CHARGE =     1.144386
:NPC   : PW Pseudocharge     =     5.354931
:NTO001: CHARGE SPHERE  1    =    10.288123
:NTO002: CHARGE SPHERE  2    =     8.567486

:NEC01: NUCLEAR AND ELECTRONIC CHARGE     20.00000    19.99999
     
       CHARGES OF OLD CHARGE DENSITY
:OTO   : INTERSTITIAL CHARGE =     1.605891
:OPC   : PW Pseudocharge     =     5.109057
:OTO001: CHARGE SPHERE  1    =    10.585310
:OTO002: CHARGE SPHERE  2    =     7.808800

:NEC02: NUCLEAR AND ELECTRONIC CHARGE     20.00000    20.00000
     
       CONVERGENCE TEST
:DTO001: DIFFERENCE IN SPHERE  1 =  0.2301299
:DTO002: DIFFERENCE IN SPHERE  2 =  0.7666874

:DIS  :  CHARGE DISTANCE       ( 0.7666874 for atom    2 spin 1)      0.4984086
 PW Mixed is           65
 
******************************************************
* MULTISECANT MIXING VER9 RELEASE 10.4.0              *
* Standard Mode with controls                        *
* Fixed density scale                                *
* Regularization       1.000E-04                     *
* Trust Upper Limit    5.000E+00                     *
* Max Number of Memory Steps    8                    *
******************************************************
 
:PWTMP   6.0965E+01  1.2800E+02  1.2600E+02
:PLANE:  PW TOTAL      2.0660 DISTAN   2.44E-01  1.18E+01 %
:CHARG:  CLM/ATOM     35.1752 DISTAN   4.02E-01  1.14E+00 %
 
Step History
        DMIX         DMIXT        Red     Pred      Trust     Lambda    MagRel    MagAbs     Beta
  1   3.5000E-02   3.5000E-02 -1.00E+00  1.00E+00 -1.00E+01  1.00E+00  3.50E-02  3.50E-02  1.00E+00
  2   3.5000E-02   3.5000E-02 -1.00E+00  1.00E+00 -1.00E+01  1.00E+00  3.50E-02  4.02E-02  1.00E+00
:JACOBIANS    4.886E-01   2.941E-03
  
:TRUST:  Step 4.26E-02  Charge 7.50E-02 (e) CTO  2.50E-01 (e) PW  3.50E-01 (e)
:DIRM :  MEMORY  1/ 8 SCALE   1.000
:MIX  :   PRATT  REGULARIZATION:  1.00E-04 GREED: 0.04260  Expand 1.22  0.0426                
     
       CHARGES OF MIXED CHARGE DENSITY
:CTO   : INTERSTITIAL CHARGE =     1.599438
:CPC   : PW Pseudocharge     =     5.432900
:CTO001: CHARGE SPHERE  1    =    10.581243
:CTO002: CHARGE SPHERE  2    =     7.819319

:NEC03: NUCLEAR AND ELECTRONIC CHARGE     20.00000    20.00000

PW CHANGE     H    K    L      Current       Change    Residue
:PTO001:      0    0    0  5.58142987E-02  2.519E-03 -1.711E-03
:PTO002:     -1   -1   -1 -9.03541577E-02 -8.471E-03 -1.173E-02
:PTO003:      0    0   -2  9.94598861E-02  1.065E-02  1.617E-02
:PTO004:      0   -2   -2  8.90589432E-02  1.384E-02  5.427E-03
:PTO005:     -1   -1   -3 -3.34751634E-02 -7.374E-03  1.085E-02
:PTO006:     -2   -2   -2  2.74728199E-02  5.737E-03 -2.320E-03
:PTO007:      0    0   -4  8.99921181E-03  2.508E-03 -1.456E-03
:PTO008:     -1   -3   -3  5.70319417E-03 -1.429E-03  2.041E-03
:PTO009:      0   -2   -4  1.24933212E-02  5.099E-03 -8.186E-03
:PTO010:     -2   -2   -4  9.24916714E-04  1.903E-03 -7.312E-03
:PTO011:     -3   -3   -3  2.40735357E-03  4.659E-05 -7.375E-05
:PTO012:     -1   -1   -5  7.18771036E-03  1.306E-04 -9.267E-04

:ENE  : ********** TOTAL ENERGY IN Ry =         -549.01996990

 Flat Integration
 New Mode for Coulomb Integral
 Consistent 3/8+Simpson combinations
 Extension of core to zero
 LDM version in phi
 Fifth-order quadrature in outwin


            ---------
:ITE003:  3. ITERATION
            ---------

:NATO :    2 INDEPENDENT AND    2 TOTAL ATOMS IN UNITCELL
       SUBSTANCE: MgO_convergence                                             

       LATTICE                      = F   
:POT  : POTENTIAL OPTION EX_LDA EC_LDA VX_LDA VC_LDA
:LAT  : LATTICE CONSTANTS=  7.95801  7.95801  7.95801    1.571    1.571    1.571
:VOL  : UNIT CELL VOLUME =     125.99528
       MODE OF CALCULATION IS       = RELA
       NON-SPINPOLARIZED CALCULATION
:IFFT  : FFT-parameters:   64   64   64 Factor: 2.00


   CONVERGENCE PARAMETER FOR PSEUDOCHARGE: NCON=  9
   MAXIMAL VALUE OF RMT(JATOM)*ABSK(NKK) : RK  =23.60520


:VKCOUL :  VK-COUL convergence: 0.112E-05
       ATOMNUMBER=  1 Mg1        VCOUL-ZERO =  0.23593E+00
       ATOMNUMBER=  2 O 1        VCOUL-ZERO =  0.41337E+00
:FIT001: LUSE= 13 SIGMA OF V-XC FIT FOR ATOM  1  0.1626854E-02
:FIT001: LUSE= 13 SIGMA OF V-XC FIT FOR ATOM  1  0.1626854E-02
:FIT002: LUSE= 13 SIGMA OF V-XC FIT FOR ATOM  2  0.5712252E-04
:FIT002: LUSE= 13 SIGMA OF V-XC FIT FOR ATOM  2  0.5712252E-04
:DEN  : DENSITY INTEGRAL  =          -266.39129471   (Ry)
       ELS_POTENTIAL_AT Z=0 and Z=0.5:  -2.10000  -2.10000
       ELS_POTENTIAL_AT Y=0 and Y=0.5:   0.00000   0.00000
:VZERO:v0,v0c,v0x  -3.28778  -2.10000  -1.18778 v5,v5c,v5x  -3.28778  -2.10000  -1.18778
:VZERY:v0,v0c,v0x  -0.80628   0.00000  -0.80628 v5,v5c,v5x  -0.80628   0.00000  -0.80628
:VZERX:v0,v0c,v0x  -0.80628   0.00000  -0.80628 v5,v5c,v5x  -0.80628   0.00000  -0.80628
:LMAX-WF:   10   Non-Spherical LMAX:   4

          ATOMIC SPHERE DEPENDENT PARAMETERS FOR ATOM  Mg1       
:e__0001: OVERALL ENERGY PARAMETER IS   -0.1000
          OVERALL BASIS SET ON ATOM IS LAPW
:E0_0001: E( 0)=   -0.1000
             APW+lo
:E0_0001: E( 0)=   -4.8986   E(BOTTOM)=   -4.966   E(TOP)=   -4.831  1  2   163
             LOCAL ORBITAL
:E1_0001: E( 1)=   -0.1000
             APW+lo
:E1_0001: E( 1)=   -2.5216   E(BOTTOM)=   -2.641   E(TOP)=   -2.402  0  1   159
             LOCAL ORBITAL

          ATOMIC SPHERE DEPENDENT PARAMETERS FOR ATOM  O 1       
:e__0002: OVERALL ENERGY PARAMETER IS   -0.1000
          OVERALL BASIS SET ON ATOM IS LAPW
:E0_0002: E( 0)=   -0.1000
             APW+lo
:E0_0002: E( 0)=   -1.0849   E(BOTTOM)=   -1.685   E(TOP)=   -0.485  1  2   164
             LOCAL ORBITAL
:E1_0002: E( 1)=   -0.1000
             APW+lo

       K=   0.00000   0.00000   0.00000            1
:RKM  : MATRIX SIZE   194LOs:  13  RKM= 8.84  WEIGHT= 1.00  PGR:    
       EIGENVALUES ARE:
:EIG00001:      -4.8839151   -2.4895205   -2.4895205   -2.4895205   -1.1295739
:EIG00006:       0.0962922    0.0962922    0.0962922    0.5598573    1.4025782
:EIG00011:       1.4025782    1.4025782
       ********************************************************

:KPT   :      NUMBER OF K-POINTS:    72
       Insulator, EF-inconsistency corrected
:GAP (global)   :  0.463565 Ry =     6.307 eV (accurate value if proper k-mesh)
         Bandranges (emin - emax) and occupancy:
:BAN00001:   1   -4.883915   -4.882816  2.00000000
:BAN00002:   2   -2.497329   -2.489521  2.00000000
:BAN00003:   3   -2.493854   -2.489521  2.00000000
:BAN00004:   4   -2.492315   -2.489521  2.00000000
:BAN00005:   5   -1.129574   -1.030045  2.00000000
:BAN00006:   6   -0.179073    0.096292  2.00000000
:BAN00007:   7   -0.080319    0.096292  2.00000000
:BAN00008:   8   -0.006447    0.096292  2.00000000
:BAN00009:   9    0.559857    1.052546  0.00000000
:BAN00010:  10    0.949656    1.402578  0.00000000
:BAN00011:  11    1.095670    1.464737  0.00000000
:BAN00012:  12    1.372961    1.578489  0.00000000
:BAN00013:  13    1.512210    1.589038  0.00000000
        Energy to separate low and high energystates:   -0.22907


:NOE  : NUMBER OF ELECTRONS          =   16.000

:FER  : F E R M I - ENERGY(TETRAH.M.)=   0.0962922374
:GMA  : POTENTIAL AND CHARGE CUT-OFF  12.00 Ry**.5

:POS001: ATOM    1 X,Y,Z = 0.00000 0.00000 0.00000  MULT= 1  ZZ= 12.000  Mg1       

       LMMAX  5
       LM=   0 0  4 0  4 4  6 0  6 4

:CHA001: TOTAL VALENCE CHARGE INSIDE SPHERE   1 =   8.2917    (RMT=  1.9800 )
:PCS001: PARTIAL CHARGES SPHERE =  1 S,P,D,F,      D-EG,D-T2G 
:QTL001: 2.1052 6.0948 0.0734 0.0146 0.0000 0.0000 0.0000 0.0551 0.0183 0.0000 0.0000 0.0000
        Q-s-low E-s-low   Q-p-low E-p-low   Q-d-low E-d-low   Q-f-low E-f-low
:EPL001:  2.0080 -4.8569    5.9675 -2.4870    0.0088 -1.0435    0.0021 -1.0560
        Q-s-hi  E-s-hi    Q-p-hi  E-p-hi    Q-d-hi  E-d-hi    Q-f-hi  E-f-hi 
:EPH001:  0.0972 -0.0980    0.1273 -0.0356    0.0646 -0.0005    0.0125  0.0144

:POS002: ATOM    2 X,Y,Z = 0.50000 0.00000 0.00000  MULT= 1  ZZ=  8.000  O 1       

       LMMAX  5
       LM=   0 0  4 0  4 4  6 0  6 4

:CHA002: TOTAL VALENCE CHARGE INSIDE SPHERE   2 =   6.5547    (RMT=  1.9800 )
:PCS002: PARTIAL CHARGES SPHERE =  2 S,P,D,F,      D-EG,D-T2G 
:QTL002: 1.8137 4.7300 0.0082 0.0020 0.0000 0.0000 0.0000 0.0035 0.0047 0.0000 0.0000 0.0000
        Q-s-low E-s-low   Q-p-low E-p-low   Q-d-low E-d-low   Q-f-low E-f-low
:EPL002:  1.7925 -1.0558    0.0059 -2.2540    0.0024 -2.5697    0.0011 -2.6667
        Q-s-hi  E-s-hi    Q-p-hi  E-p-hi    Q-d-hi  E-d-hi    Q-f-hi  E-f-hi 
:EPH002:  0.0212 -0.0726    4.7240 -0.0110    0.0057 -0.0266    0.0009  0.0023

:CHA  : TOTAL VALENCE CHARGE INSIDE UNIT CELL =      16.000000

:SUM  : SUM OF EIGENVALUES =         -26.936684746


        1.ATOM      Mg1                   1 CORE STATES
:1S 001: 1S                 -91.161663275 Ry

        2.ATOM      O 1                   1 CORE STATES
:1S 002: 1S                 -36.681424178 Ry
:CINT001 Core Integral Atom   1    2.000000
:CINT002 Core Integral Atom   2    2.000000

       DENSITY AT NUCLEUS
        JATOM        VALENCE       SEMI-CORE          CORE           TOTAL
:RTO001:   1       69.725477        0.000000     1070.103700     1139.829177
:RTO002:   2       15.441663        0.000000      299.268283      314.709946
     
       CHARGES OF NEW CHARGE DENSITY
:NTO   : INTERSTITIAL CHARGE =     1.153564
:NPC   : PW Pseudocharge     =     5.357257
:NTO001: CHARGE SPHERE  1    =    10.291724
:NTO002: CHARGE SPHERE  2    =     8.554707

:NEC01: NUCLEAR AND ELECTRONIC CHARGE     20.00000    19.99999
     
       CHARGES OF OLD CHARGE DENSITY
:OTO   : INTERSTITIAL CHARGE =     1.599438
:OPC   : PW Pseudocharge     =     5.432900
:OTO001: CHARGE SPHERE  1    =    10.581243
:OTO002: CHARGE SPHERE  2    =     7.819319

:NEC02: NUCLEAR AND ELECTRONIC CHARGE     20.00000    20.00000
     
       CONVERGENCE TEST
:DTO001: DIFFERENCE IN SPHERE  1 =  0.2232571
:DTO002: DIFFERENCE IN SPHERE  2 =  0.7352732

:DIS  :  CHARGE DISTANCE       ( 0.7352732 for atom    2 spin 1)      0.4792652
 PW Mixed is           65
 
******************************************************
* MULTISECANT MIXING VER9 RELEASE 10.4.0              *
* Standard Mode with controls                        *
* Fixed density scale                                *
* Regularization       1.000E-04                     *
* Trust Upper Limit    5.000E+00                     *
* Max Number of Memory Steps    8                    *
******************************************************
 
:PWTMP   6.0965E+01  1.2800E+02  1.2600E+02
:PLANE:  PW TOTAL      2.2521 DISTAN   2.27E-01  1.01E+01 %
:CHARG:  CLM/ATOM     35.1748 DISTAN   3.86E-01  1.10E+00 %
 
Step History
        DMIX         DMIXT        Red     Pred      Trust     Lambda    MagRel    MagAbs     Beta
  1   3.5000E-02   3.5000E-02 -1.00E+00  1.00E+00 -1.00E+01  1.00E+00  3.50E-02  3.50E-02  1.00E+00
  2   3.5000E-02   3.5000E-02  7.32E-01  1.00E+00 -1.00E+01  1.00E+00  3.50E-02  4.02E-02  1.00E+00
  3   4.2602E-02   4.2602E-02 -1.00E+00  1.00E+00 -1.00E+01  1.00E+00  4.26E-02  3.58E-02  1.00E+00
:JACOBIANS    7.381E-01   4.314E-03
  
:NORMS:  1/Froebius, Min, Max, Used   0.9788E+00  0.4946E+00  0.9891E+00  0.9790E+00
:INFO :  Number of Memory Steps    2 Skipping    0
:INFO :  SLambda=    0.3516648702  Max    0.3516648702
:PREDicted Charge, CTotal, PW Trust    6.498E-03   3.986E-03   9.486E-02
:PREDicted DMix, Beta, BLim   1.7627E-02  5.8307E-01  2.7142E-01

Eigenvalues, unscaled except for SY+YY
   #     SY Real        SY Imag          SS             YY         SY+YY Real      SY+YY Imag
   1   1.948695E+00   0.000000E+00   1.916086E+00   1.999200E+00   2.684485E+00   0.000000E+00
   2  -4.440892E-16   0.000000E+00   0.000000E+00   7.996269E-04   8.026398E-04   0.000000E+00
 
:INFO :  Singular value  2.684E+00 Weight  1.000E+00 Projection  1.509E-03
:INFO :  Singular value  8.026E-04 Weight  9.416E-01 Projection -1.590E+01
:RANK :  ACTIVE   1.94/2  =  97.08 % ; YY RANK   1.94/2  =  97.06 %
 
:DLIM :  Beta Active  8.000E-01
:BLIM :  VZERO Control Off
:TRUST:  Step 2.98E-01  Charge 7.50E-02 (e) CTO  2.50E-01 (e) PW  3.50E-01 (e)
:DIRM :  MEMORY  2/8  SCALE   1.000 RED  0.96 PRED  1.00 NEXT  0.82 BETA  0.80
:TRAVE:  Charge 1.79E-02 (e) CTO  1.09E-02 (e) PW  5.69E-02 (e)
:DIRP :  |MSR1|= 7.140E-02 |PRATT|= 2.266E-01 ANGLE=  61.8 DEGREES
:DIRQ :  |MSR1|= 1.451E-02 |PRATT|= 7.714E-01 ANGLE=  43.9 DEGREES
:DIRT :  |MSR1|= 7.286E-02 |PRATT|= 8.040E-01 ANGLE=  74.4 DEGREES
:MIX  :   MSD1   REGULARIZATION:  2.00E-04 GREED: 0.02821  Newton 1.00  0.0906                
     
       CHARGES OF MIXED CHARGE DENSITY
:CTO   : INTERSTITIAL CHARGE =     1.588496
:CPC   : PW Pseudocharge     =     5.326165
:CTO001: CHARGE SPHERE  1    =    10.574251
:CTO002: CHARGE SPHERE  2    =     7.837253

:NEC03: NUCLEAR AND ELECTRONIC CHARGE     20.00000    20.00000

PW CHANGE     H    K    L      Current       Change    Residue
:PTO001:      0    0    0  5.48803235E-02 -9.340E-04 -4.139E-03
:PTO002:     -1   -1   -1 -8.76963004E-02  2.658E-03 -3.132E-03
:PTO003:      0    0   -2  9.61927903E-02 -3.267E-03  5.298E-03
:PTO004:      0   -2   -2  8.43892912E-02 -4.670E-03 -8.748E-03
:PTO005:     -1   -1   -3 -3.05972411E-02  2.878E-03  1.851E-02
:PTO006:     -2   -2   -2  2.54110476E-02 -2.062E-03 -8.178E-03
:PTO007:      0    0   -4  8.08915476E-03 -9.101E-04 -3.998E-03
:PTO008:     -1   -3   -3  6.25530195E-03  5.521E-04  3.535E-03
:PTO009:      0   -2   -4  1.04908277E-02 -2.002E-03 -1.334E-02
:PTO010:     -2   -2   -4  5.05423122E-05 -8.744E-04 -9.232E-03
:PTO011:     -3   -3   -3  2.38888154E-03 -1.847E-05 -1.197E-04
:PTO012:     -1   -1   -5  7.10780487E-03 -7.991E-05 -1.067E-03

:ENE  : ********** TOTAL ENERGY IN Ry =         -549.01415436

 Flat Integration
 New Mode for Coulomb Integral
 Consistent 3/8+Simpson combinations
 Extension of core to zero
 LDM version in phi
 Fifth-order quadrature in outwin


            ---------
:ITE004:  4. ITERATION
            ---------

:NATO :    2 INDEPENDENT AND    2 TOTAL ATOMS IN UNITCELL
       SUBSTANCE: MgO_convergence                                             

       LATTICE                      = F   
:POT  : POTENTIAL OPTION EX_LDA EC_LDA VX_LDA VC_LDA
:LAT  : LATTICE CONSTANTS=  7.95801  7.95801  7.95801    1.571    1.571    1.571
:VOL  : UNIT CELL VOLUME =     125.99528
       MODE OF CALCULATION IS       = RELA
       NON-SPINPOLARIZED CALCULATION
:IFFT  : FFT-parameters:   64   64   64 Factor: 2.00


   CONVERGENCE PARAMETER FOR PSEUDOCHARGE: NCON=  9
   MAXIMAL VALUE OF RMT(JATOM)*ABSK(NKK) : RK  =23.60520


:VKCOUL :  VK-COUL convergence: 0.109E-05
       ATOMNUMBER=  1 Mg1        VCOUL-ZERO =  0.23226E+00
       ATOMNUMBER=  2 O 1        VCOUL-ZERO =  0.41324E+00
:FIT001: LUSE= 13 SIGMA OF V-XC FIT FOR ATOM  1  0.1688464E-02
:FIT001: LUSE= 13 SIGMA OF V-XC FIT FOR ATOM  1  0.1688464E-02
:FIT002: LUSE= 13 SIGMA OF V-XC FIT FOR ATOM  2  0.5766238E-04
:FIT002: LUSE= 13 SIGMA OF V-XC FIT FOR ATOM  2  0.5766238E-04
:DEN  : DENSITY INTEGRAL  =          -266.37710856   (Ry)
       ELS_POTENTIAL_AT Z=0 and Z=0.5:  -2.08278  -2.08278
       ELS_POTENTIAL_AT Y=0 and Y=0.5:   0.00000   0.00000
:VZERO:v0,v0c,v0x  -3.26158  -2.08278  -1.17880 v5,v5c,v5x  -3.26158  -2.08278  -1.17880
:VZERY:v0,v0c,v0x  -0.80370   0.00000  -0.80370 v5,v5c,v5x  -0.80370   0.00000  -0.80370
:VZERX:v0,v0c,v0x  -0.80370   0.00000  -0.80370 v5,v5c,v5x  -0.80370   0.00000  -0.80370
:LMAX-WF:   10   Non-Spherical LMAX:   4

          ATOMIC SPHERE DEPENDENT PARAMETERS FOR ATOM  Mg1       
:e__0001: OVERALL ENERGY PARAMETER IS   -0.1025
          OVERALL BASIS SET ON ATOM IS LAPW
:E0_0001: E( 0)=   -0.1025
             APW+lo
:E0_0001: E( 0)=   -4.9051   E(BOTTOM)=   -4.972   E(TOP)=   -4.838  1  2   161
             LOCAL ORBITAL
:E1_0001: E( 1)=   -0.1025
             APW+lo
:E1_0001: E( 1)=   -2.5281   E(BOTTOM)=   -2.647   E(TOP)=   -2.409  0  1   157
             LOCAL ORBITAL

          ATOMIC SPHERE DEPENDENT PARAMETERS FOR ATOM  O 1       
:e__0002: OVERALL ENERGY PARAMETER IS   -0.1025
          OVERALL BASIS SET ON ATOM IS LAPW
:E0_0002: E( 0)=    0.2975
             APW+lo
:E0_0002: E( 0)=   -1.0783   E(BOTTOM)=   -1.680   E(TOP)=   -0.477  1  2   168
             LOCAL ORBITAL
:E1_0002: E( 1)=   -0.1025
             APW+lo

       K=   0.00000   0.00000   0.00000            1
:RKM  : MATRIX SIZE   194LOs:  13  RKM= 8.84  WEIGHT= 1.00  PGR:    
       EIGENVALUES ARE:
:EIG00001:      -4.8904943   -2.4960794   -2.4960794   -2.4960794   -1.1244548
:EIG00006:       0.1024404    0.1024404    0.1024404    0.5600214    1.4010898
:EIG00011:       1.4010898    1.4010898
       ********************************************************

:KPT   :      NUMBER OF K-POINTS:    72
:GAP (global)   :  0.457581 Ry =     6.226 eV (accurate value if proper k-mesh)
         Bandranges (emin - emax) and occupancy:
:BAN00001:   1   -4.890494   -4.889402  2.00000000
:BAN00002:   2   -2.503828   -2.496079  2.00000000
:BAN00003:   3   -2.500390   -2.496079  2.00000000
:BAN00004:   4   -2.498854   -2.496079  2.00000000
:BAN00005:   5   -1.124455   -1.023926  2.00000000
:BAN00006:   6   -0.175908    0.102440  2.00000000
:BAN00007:   7   -0.076319    0.102440  2.00000000
:BAN00008:   8   -0.001513    0.102440  2.00000000
:BAN00009:   9    0.560021    1.053341  0.00000000
:BAN00010:  10    0.949336    1.401090  0.00000000
:BAN00011:  11    1.097209    1.463259  0.00000000
:BAN00012:  12    1.371816    1.578070  0.00000000
:BAN00013:  13    1.511631    1.588640  0.00000000
        Energy to separate low and high energystates:   -0.22591


:NOE  : NUMBER OF ELECTRONS          =   16.000

:FER  : F E R M I - ENERGY(TETRAH.M.)=   0.1025246135
:GMA  : POTENTIAL AND CHARGE CUT-OFF  12.00 Ry**.5

:POS001: ATOM    1 X,Y,Z = 0.00000 0.00000 0.00000  MULT= 1  ZZ= 12.000  Mg1       

       LMMAX  5
       LM=   0 0  4 0  4 4  6 0  6 4

:CHA001: TOTAL VALENCE CHARGE INSIDE SPHERE   1 =   8.2958    (RMT=  1.9800 )
:PCS001: PARTIAL CHARGES SPHERE =  1 S,P,D,F,      D-EG,D-T2G 
:QTL001: 2.1066 6.0967 0.0742 0.0147 0.0000 0.0000 0.0000 0.0556 0.0185 0.0000 0.0000 0.0000
        Q-s-low E-s-low   Q-p-low E-p-low   Q-d-low E-d-low   Q-f-low E-f-low
:EPL001:  2.0082 -4.8631    5.9679 -2.4935    0.0089 -1.0375    0.0021 -1.0500
        Q-s-hi  E-s-hi    Q-p-hi  E-p-hi    Q-d-hi  E-d-hi    Q-f-hi  E-f-hi 
:EPH001:  0.0984 -0.0939    0.1288 -0.0310    0.0653  0.0045    0.0126  0.0196

:POS002: ATOM    2 X,Y,Z = 0.50000 0.00000 0.00000  MULT= 1  ZZ=  8.000  O 1       

       LMMAX  5
       LM=   0 0  4 0  4 4  6 0  6 4

:CHA002: TOTAL VALENCE CHARGE INSIDE SPHERE   2 =   6.5408    (RMT=  1.9800 )
:PCS002: PARTIAL CHARGES SPHERE =  2 S,P,D,F,      D-EG,D-T2G 
:QTL002: 1.8125 4.7171 0.0083 0.0020 0.0000 0.0000 0.0000 0.0035 0.0048 0.0000 0.0000 0.0000
        Q-s-low E-s-low   Q-p-low E-p-low   Q-d-low E-d-low   Q-f-low E-f-low
:EPL002:  1.7907 -1.0500    0.0059 -2.2492    0.0024 -2.5726    0.0011 -2.6718
        Q-s-hi  E-s-hi    Q-p-hi  E-p-hi    Q-d-hi  E-d-hi    Q-f-hi  E-f-hi 
:EPH002:  0.0217 -0.0683    4.7112 -0.0060    0.0059 -0.0217    0.0009  0.0075

:CHA  : TOTAL VALENCE CHARGE INSIDE UNIT CELL =      16.000000

:SUM  : SUM OF EIGENVALUES =         -26.948559393


        1.ATOM      Mg1                   1 CORE STATES
:1S 001: 1S                 -91.169412212 Ry

        2.ATOM      O 1                   1 CORE STATES
:1S 002: 1S                 -36.671334073 Ry
:CINT001 Core Integral Atom   1    2.000000
:CINT002 Core Integral Atom   2    2.000000

       DENSITY AT NUCLEUS
        JATOM        VALENCE       SEMI-CORE          CORE           TOTAL
:RTO001:   1       69.750739        0.000000     1070.107205     1139.857944
:RTO002:   2       15.404778        0.000000      299.270993      314.675771
     
       CHARGES OF NEW CHARGE DENSITY
:NTO   : INTERSTITIAL CHARGE =     1.163402
:NPC   : PW Pseudocharge     =     5.360035
:NTO001: CHARGE SPHERE  1    =    10.295822
:NTO002: CHARGE SPHERE  2    =     8.540771

:NEC01: NUCLEAR AND ELECTRONIC CHARGE     20.00000    19.99999
     
       CHARGES OF OLD CHARGE DENSITY
:OTO   : INTERSTITIAL CHARGE =     1.588496
:OPC   : PW Pseudocharge     =     5.326165
:OTO001: CHARGE SPHERE  1    =    10.574251
:OTO002: CHARGE SPHERE  2    =     7.837253

:NEC02: NUCLEAR AND ELECTRONIC CHARGE     20.00000    20.00000
     
       CONVERGENCE TEST
:DTO001: DIFFERENCE IN SPHERE  1 =  0.2144027
:DTO002: DIFFERENCE IN SPHERE  2 =  0.7021802

:DIS  :  CHARGE DISTANCE       ( 0.7021802 for atom    2 spin 1)      0.4582915
 PW Mixed is           65
 
******************************************************
* MULTISECANT MIXING VER9 RELEASE 10.4.0              *
* Slow Mode, cautious                                *
* Fixed density scale                                *
* Regularization       1.000E-04                     *
* Step Trust Radius    0.75000                       *
* Trust Upper Limit    2.000E+00                     *
* Max Number of Memory Steps   12                    *
******************************************************
 
:PWTMP   6.0965E+01  1.2800E+02  1.2600E+02
:PLANE:  PW TOTAL      2.1893 DISTAN   2.01E-01  9.20E+00 %
:CHARG:  CLM/ATOM     35.1735 DISTAN   3.69E-01  1.05E+00 %
 
Step History
        DMIX         DMIXT        Red     Pred      Trust     Lambda    MagRel    MagAbs     Beta
  1   3.5000E-02   3.5000E-02 -1.00E+00  1.00E+00 -1.00E+01  1.00E+00  3.50E-02  3.50E-02  1.00E+00
  2   3.5000E-02   3.5000E-02  7.32E-01  1.00E+00 -1.00E+01  1.00E+00  3.50E-02  4.02E-02  1.00E+00
  3   4.2602E-02   4.2602E-02  9.57E-01  1.00E+00 -1.00E+01  3.52E-01  4.26E-02  3.58E-02  1.00E+00
  4   2.8214E-02   2.8214E-02 -1.00E+00  8.19E-01  2.98E-01  1.00E+00  9.06E-02  7.29E-02  8.00E-01
:JACOBIANS    8.868E-01   2.190E-01
  
:NORMS:  1/Froebius, Min, Max, Used   0.9326E+00  0.4959E+00  0.9970E+00  0.9924E+00
:INFO :  Number of Memory Steps    3 Skipping    0
:INFO :  SLambda=    1.2310092048  Max    1.2310092048
:PREDicted Charge, CTotal, PW Trust    3.921E-01   2.394E-01   2.196E-01
:PREDicted DMix, Beta, BLim   4.4344E-01  3.5155E+00  4.8179E-01

Eigenvalues, unscaled except for SY+YY
   #     SY Real        SY Imag          SS             YY         SY+YY Real      SY+YY Imag
   1   2.558606E+00   0.000000E+00   2.543807E+00   2.582668E+00   5.731056E+00   0.000000E+00
   2  -1.066955E-15   0.000000E+00   6.533298E-02   4.166849E-01   7.589489E-04   0.000000E+00
   3   1.254791E-01   0.000000E+00   2.661107E-16   6.475123E-04   5.723181E-01   0.000000E+00
 
:INFO :  Singular value  5.732E+00 Weight  1.000E+00 Projection -3.225E-03
:INFO :  Singular value  5.722E-01 Weight  1.000E+00 Projection -1.183E+00
:INFO :  Singular value  7.589E-04 Weight  8.962E-01 Projection  1.366E+00
:RANK :  ACTIVE   2.90/3  =  96.54 % ; YY RANK   2.86/3  =  95.42 %
 
:BLIM :  VZERO Control Off
:TRUST:  Step 3.90E-01  Charge 8.25E-02 (e) CTO  2.50E-01 (e) PW  3.50E-01 (e)
:DTRUS:  Lambda    2.418E+01 Increment    7.276E-12 Iterations   136 DMIX    1.541E-02
:INFOA:  Angle SubSpace to MSR1     11.29
:DIRM :  MEMORY  3/12 SCALE   1.000 RED  0.95 PRED  0.82 NEXT  0.64 
:INFO :  Limited by Atoms F by Step T

:TRAVE:  Charge 5.02E-02 (e) CTO  3.04E-02 (e) PW  4.02E-02 (e)
:DIRP :  |MSR1|= 2.358E-02 |PRATT|= 2.015E-01 ANGLE=   4.7 DEGREES
:DIRQ :  |MSR1|= 6.677E-02 |PRATT|= 7.372E-01 ANGLE=  35.5 DEGREES
:DIRT :  |MSR1|= 7.081E-02 |PRATT|= 7.642E-01 ANGLE=  34.1 DEGREES
:MIX  :   MSE1   REGULARIZATION:  2.58E-04 GREED: 0.07054  LMStep 0.22  0.0927 Charge         
     
       CHARGES OF MIXED CHARGE DENSITY
:CTO   : INTERSTITIAL CHARGE =     1.538656
:CPC   : PW Pseudocharge     =     5.327329
:CTO001: CHARGE SPHERE  1    =    10.541591
:CTO002: CHARGE SPHERE  2    =     7.919753

:NEC03: NUCLEAR AND ELECTRONIC CHARGE     20.00000    20.00000

PW CHANGE     H    K    L      Current       Change    Residue
:PTO001:      0    0    0  5.44939873E-02 -3.863E-04 -3.105E-03
:PTO002:     -1   -1   -1 -8.82057471E-02 -5.094E-04 -5.640E-03
:PTO003:      0    0   -2  9.71107454E-02  9.180E-04  8.355E-03
:PTO004:      0   -2   -2  8.38233828E-02 -5.659E-04 -4.363E-03
:PTO005:     -1   -1   -3 -2.86588993E-02  1.938E-03  1.587E-02
:PTO006:     -2   -2   -2  2.46649810E-02 -7.461E-04 -6.205E-03
:PTO007:      0    0   -4  7.73312547E-03 -3.560E-04 -3.102E-03
:PTO008:     -1   -3   -3  6.60620902E-03  3.509E-04  3.012E-03
:PTO009:      0   -2   -4  9.15777794E-03 -1.333E-03 -1.134E-02
:PTO010:     -2   -2   -4 -9.54727580E-04 -1.005E-03 -8.326E-03
:PTO011:     -3   -3   -3  2.37423507E-03 -1.465E-05 -1.083E-04
:PTO012:     -1   -1   -5  6.95489325E-03 -1.529E-04 -1.007E-03

:ENE  : ********** TOTAL ENERGY IN Ry =         -549.00716052

 Flat Integration
 New Mode for Coulomb Integral
 Consistent 3/8+Simpson combinations
 Extension of core to zero
 LDM version in phi
 Fifth-order quadrature in outwin


            ---------
:ITE005:  5. ITERATION
            ---------

:NATO :    2 INDEPENDENT AND    2 TOTAL ATOMS IN UNITCELL
       SUBSTANCE: MgO_convergence                                             

       LATTICE                      = F   
:POT  : POTENTIAL OPTION EX_LDA EC_LDA VX_LDA VC_LDA
:LAT  : LATTICE CONSTANTS=  7.95801  7.95801  7.95801    1.571    1.571    1.571
:VOL  : UNIT CELL VOLUME =     125.99528
       MODE OF CALCULATION IS       = RELA
       NON-SPINPOLARIZED CALCULATION
:IFFT  : FFT-parameters:   64   64   64 Factor: 2.00


   CONVERGENCE PARAMETER FOR PSEUDOCHARGE: NCON=  9
   MAXIMAL VALUE OF RMT(JATOM)*ABSK(NKK) : RK  =23.60520


:VKCOUL :  VK-COUL convergence: 0.106E-05
       ATOMNUMBER=  1 Mg1        VCOUL-ZERO =  0.22161E+00
       ATOMNUMBER=  2 O 1        VCOUL-ZERO =  0.41902E+00
:FIT001: LUSE= 13 SIGMA OF V-XC FIT FOR ATOM  1  0.2014740E-02
:FIT001: LUSE= 13 SIGMA OF V-XC FIT FOR ATOM  1  0.2014740E-02
:FIT002: LUSE= 13 SIGMA OF V-XC FIT FOR ATOM  2  0.6008038E-04
:FIT002: LUSE= 13 SIGMA OF V-XC FIT FOR ATOM  2  0.6008038E-04
:DEN  : DENSITY INTEGRAL  =          -266.47475761   (Ry)
       ELS_POTENTIAL_AT Z=0 and Z=0.5:  -2.05285  -2.05285
       ELS_POTENTIAL_AT Y=0 and Y=0.5:   0.00000   0.00000
:VZERO:v0,v0c,v0x  -3.23543  -2.05285  -1.18258 v5,v5c,v5x  -3.23543  -2.05285  -1.18258
:VZERY:v0,v0c,v0x  -0.79993   0.00000  -0.79993 v5,v5c,v5x  -0.79993   0.00000  -0.79993
:VZERX:v0,v0c,v0x  -0.79993   0.00000  -0.79993 v5,v5c,v5x  -0.79993   0.00000  -0.79993
:LMAX-WF:   10   Non-Spherical LMAX:   4

          ATOMIC SPHERE DEPENDENT PARAMETERS FOR ATOM  Mg1       
:e__0001: OVERALL ENERGY PARAMETER IS   -0.0991
          OVERALL BASIS SET ON ATOM IS LAPW
:E0_0001: E( 0)=   -0.0991
             APW+lo
:E0_0001: E( 0)=   -4.9290   E(BOTTOM)=   -4.996   E(TOP)=   -4.862  1  2   161
             LOCAL ORBITAL
:E1_0001: E( 1)=   -0.0991
             APW+lo
:E1_0001: E( 1)=   -2.5518   E(BOTTOM)=   -2.670   E(TOP)=   -2.433  0  1   159
             LOCAL ORBITAL

          ATOMIC SPHERE DEPENDENT PARAMETERS FOR ATOM  O 1       
:e__0002: OVERALL ENERGY PARAMETER IS   -0.0991
          OVERALL BASIS SET ON ATOM IS LAPW
:E0_0002: E( 0)=    0.3009
             APW+lo
:E0_0002: E( 0)=   -1.0391   E(BOTTOM)=   -1.648   E(TOP)=   -0.430  1  2   164
             LOCAL ORBITAL
:E1_0002: E( 1)=   -0.0991
             APW+lo

       K=   0.00000   0.00000   0.00000            1
:RKM  : MATRIX SIZE   194LOs:  13  RKM= 8.84  WEIGHT= 1.00  PGR:    
       EIGENVALUES ARE:
:EIG00001:      -4.9144834   -2.5199531   -2.5199531   -2.5199531   -1.0926883
:EIG00006:       0.1395825    0.1395825    0.1395825    0.5682976    1.4006644
:EIG00011:       1.4006644    1.4006644
       ********************************************************

:KPT   :      NUMBER OF K-POINTS:    72
       Insulator, EF-inconsistency corrected
:GAP (global)   :  0.428715 Ry =     5.833 eV (accurate value if proper k-mesh)
         Bandranges (emin - emax) and occupancy:
:BAN00001:   1   -4.914483   -4.913414  2.00000000
:BAN00002:   2   -2.527436   -2.519953  2.00000000
:BAN00003:   3   -2.524159   -2.519953  2.00000000
:BAN00004:   4   -2.522642   -2.519953  2.00000000
:BAN00005:   5   -1.092688   -0.987070  2.00000000
:BAN00006:   6   -0.153889    0.139583  2.00000000
:BAN00007:   7   -0.050139    0.139583  2.00000000
:BAN00008:   8    0.029377    0.139583  2.00000000
:BAN00009:   9    0.568298    1.064627  0.00000000
:BAN00010:  10    0.954638    1.400664  0.00000000
:BAN00011:  11    1.112271    1.462933  0.00000000
:BAN00012:  12    1.373449    1.584202  0.00000000
:BAN00013:  13    1.515849    1.593779  0.00000000
        Energy to separate low and high energystates:   -0.20389


:NOE  : NUMBER OF ELECTRONS          =   16.000

:FER  : F E R M I - ENERGY(TETRAH.M.)=   0.1395825348
:GMA  : POTENTIAL AND CHARGE CUT-OFF  12.00 Ry**.5

:POS001: ATOM    1 X,Y,Z = 0.00000 0.00000 0.00000  MULT= 1  ZZ= 12.000  Mg1       

       LMMAX  5
       LM=   0 0  4 0  4 4  6 0  6 4

:CHA001: TOTAL VALENCE CHARGE INSIDE SPHERE   1 =   8.3166    (RMT=  1.9800 )
:PCS001: PARTIAL CHARGES SPHERE =  1 S,P,D,F,      D-EG,D-T2G 
:QTL001: 2.1140 6.1059 0.0779 0.0150 0.0000 0.0000 0.0000 0.0580 0.0199 0.0000 0.0000 0.0000
        Q-s-low E-s-low   Q-p-low E-p-low   Q-d-low E-d-low   Q-f-low E-f-low
:EPL001:  2.0092 -4.8850    5.9697 -2.5169    0.0092 -1.0012    0.0021 -1.0141
        Q-s-hi  E-s-hi    Q-p-hi  E-p-hi    Q-d-hi  E-d-hi    Q-f-hi  E-f-hi 
:EPH001:  0.1048 -0.0676    0.1363 -0.0014    0.0687  0.0359    0.0129  0.0520

:POS002: ATOM    2 X,Y,Z = 0.50000 0.00000 0.00000  MULT= 1  ZZ=  8.000  O 1       

       LMMAX  5
       LM=   0 0  4 0  4 4  6 0  6 4

:CHA002: TOTAL VALENCE CHARGE INSIDE SPHERE   2 =   6.4702    (RMT=  1.9800 )
:PCS002: PARTIAL CHARGES SPHERE =  2 S,P,D,F,      D-EG,D-T2G 
:QTL002: 1.8064 4.6518 0.0089 0.0021 0.0000 0.0000 0.0000 0.0036 0.0053 0.0000 0.0000 0.0000
        Q-s-low E-s-low   Q-p-low E-p-low   Q-d-low E-d-low   Q-f-low E-f-low
:EPL002:  1.7820 -1.0144    0.0059 -2.2146    0.0024 -2.5771    0.0011 -2.6878
        Q-s-hi  E-s-hi    Q-p-hi  E-p-hi    Q-d-hi  E-d-hi    Q-f-hi  E-f-hi 
:EPH002:  0.0245 -0.0407    4.6459  0.0252    0.0065  0.0087    0.0010  0.0394

:CHA  : TOTAL VALENCE CHARGE INSIDE UNIT CELL =      16.000000

:SUM  : SUM OF EIGENVALUES =         -26.886630000


        1.ATOM      Mg1                   1 CORE STATES
:1S 001: 1S                 -91.198647666 Ry

        2.ATOM      O 1                   1 CORE STATES
:1S 002: 1S                 -36.609457169 Ry
:CINT001 Core Integral Atom   1    2.000000
:CINT002 Core Integral Atom   2    2.000000

       DENSITY AT NUCLEUS
        JATOM        VALENCE       SEMI-CORE          CORE           TOTAL
:RTO001:   1       69.872451        0.000000     1070.123655     1139.996106
:RTO002:   2       15.221173        0.000000      299.275423      314.496596
     
       CHARGES OF NEW CHARGE DENSITY
:NTO   : INTERSTITIAL CHARGE =     1.213292
:NPC   : PW Pseudocharge     =     5.374126
:NTO001: CHARGE SPHERE  1    =    10.316553
:NTO002: CHARGE SPHERE  2    =     8.470150

:NEC01: NUCLEAR AND ELECTRONIC CHARGE     20.00000    19.99999
     
       CHARGES OF OLD CHARGE DENSITY
:OTO   : INTERSTITIAL CHARGE =     1.538656
:OPC   : PW Pseudocharge     =     5.327329
:OTO001: CHARGE SPHERE  1    =    10.541591
:OTO002: CHARGE SPHERE  2    =     7.919753

:NEC02: NUCLEAR AND ELECTRONIC CHARGE     20.00000    20.00000
     
       CONVERGENCE TEST
:DTO001: DIFFERENCE IN SPHERE  1 =  0.1729013
:DTO002: DIFFERENCE IN SPHERE  2 =  0.5340330

:DIS  :  CHARGE DISTANCE       ( 0.5340330 for atom    2 spin 1)      0.3534671
 PW Mixed is           65
 
******************************************************
* MULTISECANT MIXING VER9 RELEASE 10.4.0              *
* Standard Mode with controls                        *
* Fixed density scale                                *
* Regularization       1.000E-04                     *
* Trust Upper Limit    5.000E+00                     *
* Max Number of Memory Steps    8                    *
******************************************************
 
:PWTMP   6.0965E+01  1.2800E+02  1.2600E+02
:PLANE:  PW TOTAL      2.1857 DISTAN   1.72E-01  7.87E+00 %
:CHARG:  CLM/ATOM     35.1678 DISTAN   2.82E-01  8.03E-01 %
 
Step History
        DMIX         DMIXT        Red     Pred      Trust     Lambda    MagRel    MagAbs     Beta
  1   3.5000E-02   3.5000E-02 -1.00E+00  1.00E+00 -1.00E+01  1.00E+00  3.50E-02  3.50E-02  1.00E+00
  2   3.5000E-02   3.5000E-02  7.32E-01  1.00E+00 -1.00E+01  1.00E+00  3.50E-02  4.02E-02  1.00E+00
  3   4.2602E-02   4.2602E-02  9.57E-01  1.00E+00 -1.00E+01  3.52E-01  4.26E-02  3.58E-02  1.00E+00
  4   2.8214E-02   2.8214E-02  9.51E-01  8.19E-01  2.98E-01  1.23E+00  9.06E-02  7.29E-02  8.00E-01
  5   7.0535E-02   1.5406E-02 -1.00E+00  6.43E-01  3.90E-01  1.00E+00  9.27E-02  7.08E-02  1.00E+00
:JACOBIANS    9.581E-01   2.882E-01
  
:NORMS:  1/Froebius, Min, Max, Used   0.6207E+00  0.5020E+00  0.9986E+00  0.6207E+00
:INFO :  Number of Memory Steps    4 Skipping    0
:INFO :  SLambda=    1.6179829944  Max    1.6179829944
:PREDicted Charge, CTotal, PW Trust    3.610E-01   2.182E-01   1.497E-01
:PREDicted DMix, Beta, BLim   1.2654E-02  1.4336E+00  4.1946E-01

Eigenvalues, unscaled except for SY+YY
   #     SY Real        SY Imag          SS             YY         SY+YY Real      SY+YY Imag
   1   1.302760E+00   0.000000E+00   1.148808E+00   3.007429E+00   4.783598E+00   0.000000E+00
   2   6.619968E-01   0.000000E+00   3.920347E-01   9.922751E-01   2.394989E+00   0.000000E+00
   3  -4.266061E-16   0.000000E+00   7.163368E-06   2.767397E-04   3.377374E-04   0.000000E+00
   4   1.062298E-05   0.000000E+00  -1.026011E-17   1.909515E-05   3.558944E-05   0.000000E+00
 
:INFO :  Singular value  4.793E+00 Weight  1.000E+00 Projection -2.637E-01
:INFO :  Singular value  2.390E+00 Weight  1.000E+00 Projection -2.867E-01
:INFO :  Singular value  3.380E-04 Weight  5.581E-01 Projection  1.638E+00
:INFO :  Singular value  3.557E-05 Weight  1.379E-02 Projection -5.701E-01
:RANK :  ACTIVE   2.57/4  =  64.30 % ; YY RANK   2.46/4  =  61.56 %
 
Increasing Charge by   1.327
:BLIM :  VZERO Control Off
:TRUST:  Step 5.05E-01  Charge 1.20E-01 (e) CTO  2.50E-01 (e) PW  3.50E-01 (e)
:DTRUS:  Lambda    8.549E+00 Increment    7.276E-12 Iterations   130 DMIX    2.112E-02
:INFOA:  Angle SubSpace to MSR1     13.77
:DIRM :  MEMORY  4/8  SCALE   1.000 RED  0.77 PRED  0.64 NEXT  0.55 
:INFO :  Limited by Atoms F by Step T

:TRAVE:  Charge 8.53E-02 (e) CTO  5.11E-02 (e) PW  3.62E-02 (e)
:DIRP :  |MSR1|= 3.630E-02 |PRATT|= 1.720E-01 ANGLE=   4.0 DEGREES
:DIRQ :  |MSR1|= 9.765E-02 |PRATT|= 5.645E-01 ANGLE=  34.2 DEGREES
:DIRT :  |MSR1|= 1.042E-01 |PRATT|= 5.902E-01 ANGLE=  32.5 DEGREES
:MIX  :   MSE1   REGULARIZATION:  3.01E-04 GREED: 0.03234  LMStep 0.41  0.1765 Charge         
     
       CHARGES OF MIXED CHARGE DENSITY
:CTO   : INTERSTITIAL CHARGE =     1.466865
:CPC   : PW Pseudocharge     =     5.332620
:CTO001: CHARGE SPHERE  1    =    10.492930
:CTO002: CHARGE SPHERE  2    =     8.040205

:NEC03: NUCLEAR AND ELECTRONIC CHARGE     20.00000    20.00000

PW CHANGE     H    K    L      Current       Change    Residue
:PTO001:      0    0    0  5.39661875E-02 -5.278E-04 -2.211E-03
:PTO002:     -1   -1   -1 -8.89682927E-02 -7.625E-04 -4.350E-03
:PTO003:      0    0   -2  9.84548919E-02  1.344E-03  6.375E-03
:PTO004:      0   -2   -2  8.27832722E-02 -1.040E-03 -5.229E-03
:PTO005:     -1   -1   -3 -2.54768431E-02  3.182E-03  1.516E-02
:PTO006:     -2   -2   -2  2.34470501E-02 -1.218E-03 -5.899E-03
:PTO007:      0    0   -4  7.16522014E-03 -5.679E-04 -2.818E-03
:PTO008:     -1   -3   -3  7.17746263E-03  5.713E-04  2.802E-03
:PTO009:      0   -2   -4  7.07226027E-03 -2.086E-03 -9.970E-03
:PTO010:     -2   -2   -4 -2.50542432E-03 -1.551E-03 -7.156E-03
:PTO011:     -3   -3   -3  2.34725844E-03 -2.698E-05 -1.306E-04
:PTO012:     -1   -1   -5  6.71084117E-03 -2.441E-04 -9.590E-04

:ENE  : ********** TOTAL ENERGY IN Ry =         -548.97759728

 Flat Integration
 New Mode for Coulomb Integral
 Consistent 3/8+Simpson combinations
 Extension of core to zero
 LDM version in phi
 Fifth-order quadrature in outwin


            ---------
:ITE006:  6. ITERATION
            ---------

:NATO :    2 INDEPENDENT AND    2 TOTAL ATOMS IN UNITCELL
       SUBSTANCE: MgO_convergence                                             

       LATTICE                      = F   
:POT  : POTENTIAL OPTION EX_LDA EC_LDA VX_LDA VC_LDA
:LAT  : LATTICE CONSTANTS=  7.95801  7.95801  7.95801    1.571    1.571    1.571
:VOL  : UNIT CELL VOLUME =     125.99528
       MODE OF CALCULATION IS       = RELA
       NON-SPINPOLARIZED CALCULATION
:IFFT  : FFT-parameters:   64   64   64 Factor: 2.00


   CONVERGENCE PARAMETER FOR PSEUDOCHARGE: NCON=  9
   MAXIMAL VALUE OF RMT(JATOM)*ABSK(NKK) : RK  =23.60520


:VKCOUL :  VK-COUL convergence: 0.102E-05
       ATOMNUMBER=  1 Mg1        VCOUL-ZERO =  0.20643E+00
       ATOMNUMBER=  2 O 1        VCOUL-ZERO =  0.42813E+00
:FIT001: LUSE= 13 SIGMA OF V-XC FIT FOR ATOM  1  0.2622067E-02
:FIT001: LUSE= 13 SIGMA OF V-XC FIT FOR ATOM  1  0.2622067E-02
:FIT002: LUSE= 13 SIGMA OF V-XC FIT FOR ATOM  2  0.6372981E-04
:FIT002: LUSE= 13 SIGMA OF V-XC FIT FOR ATOM  2  0.6372981E-04
:DEN  : DENSITY INTEGRAL  =          -266.63052136   (Ry)
       ELS_POTENTIAL_AT Z=0 and Z=0.5:  -2.01125  -2.01125
       ELS_POTENTIAL_AT Y=0 and Y=0.5:   0.00000   0.00000
:VZERO:v0,v0c,v0x  -3.19998  -2.01125  -1.18873 v5,v5c,v5x  -3.19998  -2.01125  -1.18873
:VZERY:v0,v0c,v0x  -0.79435   0.00000  -0.79435 v5,v5c,v5x  -0.79435   0.00000  -0.79435
:VZERX:v0,v0c,v0x  -0.79435   0.00000  -0.79435 v5,v5c,v5x  -0.79435   0.00000  -0.79435
:LMAX-WF:   10   Non-Spherical LMAX:   4

          ATOMIC SPHERE DEPENDENT PARAMETERS FOR ATOM  Mg1       
:e__0001: OVERALL ENERGY PARAMETER IS   -0.0733
          OVERALL BASIS SET ON ATOM IS LAPW
:E0_0001: E( 0)=   -0.0733
             APW+lo
:E0_0001: E( 0)=   -4.9632   E(BOTTOM)=   -5.030   E(TOP)=   -4.897  1  2   149
             LOCAL ORBITAL
:E1_0001: E( 1)=   -0.0733
             APW+lo
:E1_0001: E( 1)=   -2.5855   E(BOTTOM)=   -2.703   E(TOP)=   -2.468  0  1   155
             LOCAL ORBITAL

          ATOMIC SPHERE DEPENDENT PARAMETERS FOR ATOM  O 1       
:e__0002: OVERALL ENERGY PARAMETER IS   -0.0733
          OVERALL BASIS SET ON ATOM IS LAPW
:E0_0002: E( 0)=    0.3267
             APW+lo
:E0_0002: E( 0)=   -0.9821   E(BOTTOM)=   -1.601   E(TOP)=   -0.363  1  2   160
             LOCAL ORBITAL
:E1_0002: E( 1)=   -0.0733
             APW+lo

       K=   0.00000   0.00000   0.00000            1
:RKM  : MATRIX SIZE   194LOs:  13  RKM= 8.84  WEIGHT= 1.00  PGR:    
       EIGENVALUES ARE:
:EIG00001:      -4.9487682   -2.5540032   -2.5540032   -2.5540032   -1.0471584
:EIG00006:       0.1931412    0.1931412    0.1931412    0.5816149    1.4005896
:EIG00011:       1.4005896    1.4005896
       ********************************************************

:KPT   :      NUMBER OF K-POINTS:    72
       Insulator, EF-inconsistency corrected
:GAP (global)   :  0.388474 Ry =     5.285 eV (accurate value if proper k-mesh)
         Bandranges (emin - emax) and occupancy:
:BAN00001:   1   -4.948768   -4.947728  2.00000000
:BAN00002:   2   -2.561133   -2.554003  2.00000000
:BAN00003:   3   -2.558060   -2.554003  2.00000000
:BAN00004:   4   -2.556579   -2.554003  2.00000000
:BAN00005:   5   -1.047158   -0.933746  2.00000000
:BAN00006:   6   -0.123107    0.193141  2.00000000
:BAN00007:   7   -0.013312    0.193141  2.00000000
:BAN00008:   8    0.073235    0.193141  2.00000000
:BAN00009:   9    0.581615    1.082113  0.00000000
:BAN00010:  10    0.961844    1.400590  0.00000000
:BAN00011:  11    1.127629    1.463325  0.00000000
:BAN00012:  12    1.376425    1.622151  0.00000000
:BAN00013:  13    1.522469    1.623787  0.00000000
        Energy to separate low and high energystates:   -0.17311


:NOE  : NUMBER OF ELECTRONS          =   16.000

:FER  : F E R M I - ENERGY(TETRAH.M.)=   0.1931412169
:GMA  : POTENTIAL AND CHARGE CUT-OFF  12.00 Ry**.5

:POS001: ATOM    1 X,Y,Z = 0.00000 0.00000 0.00000  MULT= 1  ZZ= 12.000  Mg1       

       LMMAX  5
       LM=   0 0  4 0  4 4  6 0  6 4

:CHA001: TOTAL VALENCE CHARGE INSIDE SPHERE   1 =   8.3481    (RMT=  1.9800 )
:PCS001: PARTIAL CHARGES SPHERE =  1 S,P,D,F,      D-EG,D-T2G 
:QTL001: 2.1251 6.1201 0.0837 0.0155 0.0000 0.0000 0.0000 0.0616 0.0221 0.0000 0.0000 0.0000
        Q-s-low E-s-low   Q-p-low E-p-low   Q-d-low E-d-low   Q-f-low E-f-low
:EPL001:  2.0107 -4.9159    5.9723 -2.5502    0.0097 -0.9488    0.0021 -0.9622
        Q-s-hi  E-s-hi    Q-p-hi  E-p-hi    Q-d-hi  E-d-hi    Q-f-hi  E-f-hi 
:EPH001:  0.1145 -0.0302    0.1478  0.0408    0.0740  0.0807    0.0134  0.0982

:POS002: ATOM    2 X,Y,Z = 0.50000 0.00000 0.00000  MULT= 1  ZZ=  8.000  O 1       

       LMMAX  5
       LM=   0 0  4 0  4 4  6 0  6 4

:CHA002: TOTAL VALENCE CHARGE INSIDE SPHERE   2 =   6.3640    (RMT=  1.9800 )
:PCS002: PARTIAL CHARGES SPHERE =  2 S,P,D,F,      D-EG,D-T2G 
:QTL002: 1.7975 4.5534 0.0099 0.0022 0.0000 0.0000 0.0000 0.0038 0.0061 0.0000 0.0000 0.0000
        Q-s-low E-s-low   Q-p-low E-p-low   Q-d-low E-d-low   Q-f-low E-f-low
:EPL002:  1.7686 -0.9631    0.0060 -2.1543    0.0024 -2.5787    0.0011 -2.7090
        Q-s-hi  E-s-hi    Q-p-hi  E-p-hi    Q-d-hi  E-d-hi    Q-f-hi  E-f-hi 
:EPH002:  0.0289 -0.0015    4.5475  0.0699    0.0076  0.0522    0.0012  0.0850

:CHA  : TOTAL VALENCE CHARGE INSIDE UNIT CELL =      16.000000

:SUM  : SUM OF EIGENVALUES =         -26.797923233


        1.ATOM      Mg1                   1 CORE STATES
:1S 001: 1S                 -91.239615137 Ry

        2.ATOM      O 1                   1 CORE STATES
:1S 002: 1S                 -36.520573235 Ry
:CINT001 Core Integral Atom   1    2.000000
:CINT002 Core Integral Atom   2    2.000000

       DENSITY AT NUCLEUS
        JATOM        VALENCE       SEMI-CORE          CORE           TOTAL
:RTO001:   1       70.049448        0.000000     1070.146599     1140.196047
:RTO002:   2       14.956472        0.000000      299.285063      314.241535
     
       CHARGES OF NEW CHARGE DENSITY
:NTO   : INTERSTITIAL CHARGE =     1.287966
:NPC   : PW Pseudocharge     =     5.391972
:NTO001: CHARGE SPHERE  1    =    10.348053
:NTO002: CHARGE SPHERE  2    =     8.363977

:NEC01: NUCLEAR AND ELECTRONIC CHARGE     20.00000    20.00000
     
       CHARGES OF OLD CHARGE DENSITY
:OTO   : INTERSTITIAL CHARGE =     1.466865
:OPC   : PW Pseudocharge     =     5.332620
:OTO001: CHARGE SPHERE  1    =    10.492930
:OTO002: CHARGE SPHERE  2    =     8.040205

:NEC02: NUCLEAR AND ELECTRONIC CHARGE     20.00000    20.00000
     
       CONVERGENCE TEST
:DTO001: DIFFERENCE IN SPHERE  1 =  0.1156632
:DTO002: DIFFERENCE IN SPHERE  2 =  0.2961764

:DIS  :  CHARGE DISTANCE       ( 0.2961764 for atom    2 spin 1)      0.2059198
 PW Mixed is           65
 
******************************************************
* MULTISECANT MIXING VER9 RELEASE 10.4.0              *
* Slow Mode, cautious                                *
* Fixed density scale                                *
* Regularization       1.000E-04                     *
* Step Trust Radius    0.75000                       *
* Trust Upper Limit    2.000E+00                     *
* Max Number of Memory Steps   12                    *
******************************************************
 
:PWTMP   6.0965E+01  1.2800E+02  1.2600E+02
:PLANE:  PW TOTAL      2.1808 DISTAN   1.34E-01  6.14E+00 %
:CHARG:  CLM/ATOM     35.1589 DISTAN   1.61E-01  4.58E-01 %
 
Step History
        DMIX         DMIXT        Red     Pred      Trust     Lambda    MagRel    MagAbs     Beta
  1   3.5000E-02   3.5000E-02 -1.00E+00  1.00E+00 -1.00E+01  1.00E+00  3.50E-02  3.50E-02  1.00E+00
  2   3.5000E-02   3.5000E-02  7.32E-01  1.00E+00 -1.00E+01  1.00E+00  3.50E-02  4.02E-02  1.00E+00
  3   4.2602E-02   4.2602E-02  9.57E-01  1.00E+00 -1.00E+01  3.52E-01  4.26E-02  3.58E-02  1.00E+00
  4   2.8214E-02   2.8214E-02  9.51E-01  8.19E-01  2.98E-01  1.23E+00  9.06E-02  7.29E-02  8.00E-01
  5   7.0535E-02   1.5406E-02  7.72E-01  6.43E-01  3.90E-01  1.62E+00  9.27E-02  7.08E-02  1.00E+00
  6   3.2338E-02   2.1120E-02 -1.00E+00  5.49E-01  5.05E-01  1.00E+00  1.77E-01  1.04E-01  1.00E+00
:JACOBIANS    1.004E+00   3.063E-01
  
:NORMS:  1/Froebius, Min, Max, Used   0.5089E+00  0.4303E+00  0.9970E+00  0.5562E+00
:INFO :  Number of Memory Steps    5 Skipping    0
:INFO :  SLambda=    2.3240620061  Max    2.3240620061
:PREDicted Charge, CTotal, PW Trust    2.746E-01   1.537E-01   9.641E-02
:PREDicted DMix, Beta, BLim   1.5784E-01  1.4895E+00  4.5600E-01

Eigenvalues, unscaled except for SY+YY
   #     SY Real        SY Imag          SS             YY         SY+YY Real      SY+YY Imag
   1   1.393166E+00   0.000000E+00   8.196547E-01   4.427171E+00   7.613491E+00   0.000000E+00
   2   5.292578E-01   0.000000E+00   4.751622E-01   5.725757E-01   1.854080E+00   0.000000E+00
   3   1.137337E-04   0.000000E+00   7.996215E-05   1.847858E-04   4.216398E-04   0.000000E+00
   4   2.134228E-15   0.000000E+00   1.295522E-08   6.757107E-05   1.031850E-04   0.000000E+00
   5   1.562014E-07   0.000000E+00  -3.796913E-17   4.852330E-07   5.686323E-07   0.000000E+00
 
:INFO :  Singular value  7.623E+00 Weight  1.000E+00 Projection -1.443E-01
:INFO :  Singular value  1.852E+00 Weight  1.000E+00 Projection -1.687E-01
:INFO :  Singular value  4.221E-04 Weight  4.761E-01 Projection -6.483E+00
:INFO :  Singular value  1.031E-04 Weight  5.143E-02 Projection -3.310E-01
:INFO :  Singular value  5.686E-07 Weight  1.650E-06 Projection  8.318E-05
:RANK :  ACTIVE   2.53/5  =  50.55 % ; YY RANK   2.17/5  =  43.42 %
 
Increasing Charge by   1.667
:BLIM :  VZERO Control Off
:TRUST:  Step 6.31E-01  Charge 2.21E-01 (e) CTO  2.50E-01 (e) PW  3.50E-01 (e)
:DIRM :  MEMORY  5/12 SCALE   1.000 RED  0.59 PRED  0.55 NEXT  0.29 
:TRAVE:  Charge 1.20E-01 (e) CTO  6.59E-02 (e) PW  4.78E-02 (e)
:DIRP :  |MSR1|= 1.120E-01 |PRATT|= 1.339E-01 ANGLE=  30.6 DEGREES
:DIRQ :  |MSR1|= 1.394E-01 |PRATT|= 3.218E-01 ANGLE=  34.0 DEGREES
:DIRT :  |MSR1|= 1.789E-01 |PRATT|= 3.486E-01 ANGLE=  36.5 DEGREES
:MIX  :   MSE1   REGULARIZATION:  4.43E-04 GREED: 0.08084  Newton 1.00  0.5131                
     
       CHARGES OF MIXED CHARGE DENSITY
:CTO   : INTERSTITIAL CHARGE =     1.386227
:CPC   : PW Pseudocharge     =     5.290674
:CTO001: CHARGE SPHERE  1    =    10.419107
:CTO002: CHARGE SPHERE  2    =     8.194666

:NEC03: NUCLEAR AND ELECTRONIC CHARGE     20.00000    20.00000

PW CHANGE     H    K    L      Current       Change    Residue
:PTO001:      0    0    0  5.29932581E-02 -9.729E-04 -9.486E-04
:PTO002:     -1   -1   -1 -8.76960806E-02  1.272E-03 -2.249E-03
:PTO003:      0    0   -2  9.72890179E-02 -1.166E-03  3.376E-03
:PTO004:      0   -2   -2  7.50965026E-02 -7.687E-03 -6.332E-03
:PTO005:     -1   -1   -3 -1.51558856E-02  1.032E-02  1.375E-02
:PTO006:     -2   -2   -2  1.87745015E-02 -4.673E-03 -5.321E-03
:PTO007:      0    0   -4  5.17972407E-03 -1.985E-03 -2.344E-03
:PTO008:     -1   -3   -3  8.96524155E-03  1.788E-03  2.394E-03
:PTO009:      0   -2   -4  1.33436157E-03 -5.738E-03 -7.799E-03
:PTO010:     -2   -2   -4 -6.01618427E-03 -3.511E-03 -5.335E-03
:PTO011:     -3   -3   -3  2.22430623E-03 -1.230E-04 -1.653E-04
:PTO012:     -1   -1   -5  6.08694172E-03 -6.239E-04 -8.874E-04

:ENE  : ********** TOTAL ENERGY IN Ry =         -548.94882134

 Flat Integration
 New Mode for Coulomb Integral
 Consistent 3/8+Simpson combinations
 Extension of core to zero
 LDM version in phi
 Fifth-order quadrature in outwin


            ---------
:ITE007:  7. ITERATION
            ---------

:NATO :    2 INDEPENDENT AND    2 TOTAL ATOMS IN UNITCELL
       SUBSTANCE: MgO_convergence                                             

       LATTICE                      = F   
:POT  : POTENTIAL OPTION EX_LDA EC_LDA VX_LDA VC_LDA
:LAT  : LATTICE CONSTANTS=  7.95801  7.95801  7.95801    1.571    1.571    1.571
:VOL  : UNIT CELL VOLUME =     125.99528
       MODE OF CALCULATION IS       = RELA
       NON-SPINPOLARIZED CALCULATION
:IFFT  : FFT-parameters:   64   64   64 Factor: 2.00


   CONVERGENCE PARAMETER FOR PSEUDOCHARGE: NCON=  9
   MAXIMAL VALUE OF RMT(JATOM)*ABSK(NKK) : RK  =23.60520


:VKCOUL :  VK-COUL convergence: 0.971E-06
       ATOMNUMBER=  1 Mg1        VCOUL-ZERO =  0.19006E+00
       ATOMNUMBER=  2 O 1        VCOUL-ZERO =  0.44663E+00
:FIT001: LUSE= 13 SIGMA OF V-XC FIT FOR ATOM  1  0.4260395E-02
:FIT001: LUSE= 13 SIGMA OF V-XC FIT FOR ATOM  1  0.4260395E-02
:FIT002: LUSE= 13 SIGMA OF V-XC FIT FOR ATOM  2  0.6916970E-04
:FIT002: LUSE= 13 SIGMA OF V-XC FIT FOR ATOM  2  0.6916970E-04
:DEN  : DENSITY INTEGRAL  =          -266.88110709   (Ry)
       ELS_POTENTIAL_AT Z=0 and Z=0.5:  -1.97329  -1.97329
       ELS_POTENTIAL_AT Y=0 and Y=0.5:   0.00000   0.00000
:VZERO:v0,v0c,v0x  -3.16652  -1.97329  -1.19323 v5,v5c,v5x  -3.16652  -1.97329  -1.19323
:VZERY:v0,v0c,v0x  -0.78727   0.00000  -0.78727 v5,v5c,v5x  -0.78727   0.00000  -0.78727
:VZERX:v0,v0c,v0x  -0.78727   0.00000  -0.78727 v5,v5c,v5x  -0.78727   0.00000  -0.78727
:LMAX-WF:   10   Non-Spherical LMAX:   4

          ATOMIC SPHERE DEPENDENT PARAMETERS FOR ATOM  Mg1       
:e__0001: OVERALL ENERGY PARAMETER IS   -0.0290
          OVERALL BASIS SET ON ATOM IS LAPW
:E0_0001: E( 0)=   -0.0290
             APW+lo
:E0_0001: E( 0)=   -5.0000   E(BOTTOM)=   -5.066   E(TOP)=   -4.934  1  2   150
             LOCAL ORBITAL
:E1_0001: E( 1)=   -0.0290
             APW+lo
:E1_0001: E( 1)=   -2.6210   E(BOTTOM)=   -2.737   E(TOP)=   -2.505  0  1   151
             LOCAL ORBITAL

          ATOMIC SPHERE DEPENDENT PARAMETERS FOR ATOM  O 1       
:e__0002: OVERALL ENERGY PARAMETER IS   -0.0290
          OVERALL BASIS SET ON ATOM IS LAPW
:E0_0002: E( 0)=    0.3710
             APW+lo
:E0_0002: E( 0)=   -0.9133   E(BOTTOM)=   -1.543   E(TOP)=   -0.283  1  2   164
             LOCAL ORBITAL
:E1_0002: E( 1)=   -0.0290
             APW+lo

       K=   0.00000   0.00000   0.00000            1
:RKM  : MATRIX SIZE   194LOs:  13  RKM= 8.84  WEIGHT= 1.00  PGR:    
       EIGENVALUES ARE:
:EIG00001:      -4.9856626   -2.5898438   -2.5898438   -2.5898438   -0.9924724
:EIG00006:       0.2571359    0.2571359    0.2571359    0.6020757    1.4043234
:EIG00011:       1.4043234    1.4043234
       ********************************************************

:KPT   :      NUMBER OF K-POINTS:    72
       Insulator, EF-inconsistency corrected
:GAP (global)   :  0.344940 Ry =     4.693 eV (accurate value if proper k-mesh)
         Bandranges (emin - emax) and occupancy:
:BAN00001:   1   -4.985663   -4.984654  2.00000000
:BAN00002:   2   -2.596608   -2.589844  2.00000000
:BAN00003:   3   -2.593736   -2.589844  2.00000000
:BAN00004:   4   -2.592303   -2.589844  2.00000000
:BAN00005:   5   -0.992472   -0.869499  2.00000000
:BAN00006:   6   -0.086287    0.257136  2.00000000
:BAN00007:   7    0.030441    0.257136  2.00000000
:BAN00008:   8    0.125121    0.257136  2.00000000
:BAN00009:   9    0.602076    1.107536  0.00000000
:BAN00010:  10    0.972466    1.404323  0.00000000
:BAN00011:  11    1.139448    1.471461  0.00000000
:BAN00012:  12    1.383684    1.655806  0.00000000
:BAN00013:  13    1.534260    1.670945  0.00000000
        Energy to separate low and high energystates:   -0.13629


:NOE  : NUMBER OF ELECTRONS          =   16.000

:FER  : F E R M I - ENERGY(TETRAH.M.)=   0.2571358950
:GMA  : POTENTIAL AND CHARGE CUT-OFF  12.00 Ry**.5

:POS001: ATOM    1 X,Y,Z = 0.00000 0.00000 0.00000  MULT= 1  ZZ= 12.000  Mg1       

       LMMAX  5
       LM=   0 0  4 0  4 4  6 0  6 4

:CHA001: TOTAL VALENCE CHARGE INSIDE SPHERE   1 =   8.3863    (RMT=  1.9800 )
:PCS001: PARTIAL CHARGES SPHERE =  1 S,P,D,F,      D-EG,D-T2G 
:QTL001: 2.1386 6.1372 0.0908 0.0162 0.0000 0.0000 0.0000 0.0659 0.0248 0.0000 0.0000 0.0000
        Q-s-low E-s-low   Q-p-low E-p-low   Q-d-low E-d-low   Q-f-low E-f-low
:EPL001:  2.0126 -4.9484    5.9754 -2.5852    0.0102 -0.8857    0.0022 -0.8999
        Q-s-hi  E-s-hi    Q-p-hi  E-p-hi    Q-d-hi  E-d-hi    Q-f-hi  E-f-hi 
:EPH001:  0.1260  0.0145    0.1618  0.0913    0.0805  0.1341    0.0140  0.1532

:POS002: ATOM    2 X,Y,Z = 0.50000 0.00000 0.00000  MULT= 1  ZZ=  8.000  O 1       

       LMMAX  5
       LM=   0 0  4 0  4 4  6 0  6 4

:CHA002: TOTAL VALENCE CHARGE INSIDE SPHERE   2 =   6.2373    (RMT=  1.9800 )
:PCS002: PARTIAL CHARGES SPHERE =  2 S,P,D,F,      D-EG,D-T2G 
:QTL002: 1.7869 4.4359 0.0113 0.0024 0.0000 0.0000 0.0000 0.0041 0.0072 0.0000 0.0000 0.0000
        Q-s-low E-s-low   Q-p-low E-p-low   Q-d-low E-d-low   Q-f-low E-f-low
:EPL002:  1.7520 -0.9014    0.0061 -2.0685    0.0024 -2.5704    0.0011 -2.7275
        Q-s-hi  E-s-hi    Q-p-hi  E-p-hi    Q-d-hi  E-d-hi    Q-f-hi  E-f-hi 
:EPH002:  0.0349  0.0453    4.4297  0.1232    0.0089  0.1041    0.0013  0.1397

:CHA  : TOTAL VALENCE CHARGE INSIDE UNIT CELL =      16.000000

:SUM  : SUM OF EIGENVALUES =         -26.655208969


        1.ATOM      Mg1                   1 CORE STATES
:1S 001: 1S                 -91.274380904 Ry

        2.ATOM      O 1                   1 CORE STATES
:1S 002: 1S                 -36.425620399 Ry
:CINT001 Core Integral Atom   1    2.000000
:CINT002 Core Integral Atom   2    2.000000

       DENSITY AT NUCLEUS
        JATOM        VALENCE       SEMI-CORE          CORE           TOTAL
:RTO001:   1       70.219011        0.000000     1070.165411     1140.384422
:RTO002:   2       14.663114        0.000000      299.334905      313.998019
     
       CHARGES OF NEW CHARGE DENSITY
:NTO   : INTERSTITIAL CHARGE =     1.376426
:NPC   : PW Pseudocharge     =     5.403155
:NTO001: CHARGE SPHERE  1    =    10.386312
:NTO002: CHARGE SPHERE  2    =     8.237257

:NEC01: NUCLEAR AND ELECTRONIC CHARGE     20.00000    20.00000
     
       CHARGES OF OLD CHARGE DENSITY
:OTO   : INTERSTITIAL CHARGE =     1.386227
:OPC   : PW Pseudocharge     =     5.290674
:OTO001: CHARGE SPHERE  1    =    10.419107
:OTO002: CHARGE SPHERE  2    =     8.194666

:NEC02: NUCLEAR AND ELECTRONIC CHARGE     20.00000    20.00000
     
       CONVERGENCE TEST
:DTO001: DIFFERENCE IN SPHERE  1 =  0.0384920
:DTO002: DIFFERENCE IN SPHERE  2 =  0.0679160

:DIS  :  CHARGE DISTANCE       ( 0.0679160 for atom    2 spin 1)      0.0532040
 PW Mixed is           65
 
******************************************************
* MULTISECANT MIXING VER9 RELEASE 10.4.0              *
* Standard Mode with controls                        *
* Fixed density scale                                *
* Regularization       1.000E-04                     *
* Trust Upper Limit    5.000E+00                     *
* Max Number of Memory Steps    8                    *
******************************************************
 
:PWTMP   6.0965E+01  1.2800E+02  1.2600E+02
:PLANE:  PW TOTAL      2.1240 DISTAN   5.53E-02  2.60E+00 %
:CHARG:  CLM/ATOM     35.1396 DISTAN   4.07E-02  1.16E-01 %
 
Step History
        DMIX         DMIXT        Red     Pred      Trust     Lambda    MagRel    MagAbs     Beta
  1   3.5000E-02   3.5000E-02 -1.00E+00  1.00E+00 -1.00E+01  1.00E+00  3.50E-02  3.50E-02  1.00E+00
  2   3.5000E-02   3.5000E-02  7.32E-01  1.00E+00 -1.00E+01  1.00E+00  3.50E-02  4.02E-02  1.00E+00
  3   4.2602E-02   4.2602E-02  9.57E-01  1.00E+00 -1.00E+01  3.52E-01  4.26E-02  3.58E-02  1.00E+00
  4   2.8214E-02   2.8214E-02  9.51E-01  8.19E-01  2.98E-01  1.23E+00  9.06E-02  7.29E-02  8.00E-01
  5   7.0535E-02   1.5406E-02  7.72E-01  6.43E-01  3.90E-01  1.62E+00  9.27E-02  7.08E-02  1.00E+00
  6   3.2338E-02   2.1120E-02  5.91E-01  5.49E-01  5.05E-01  2.32E+00  1.77E-01  1.04E-01  1.00E+00
  7   8.0844E-02   8.0844E-02 -1.00E+00  2.93E-01  6.31E-01  1.00E+00  5.13E-01  1.79E-01  1.00E+00
:JACOBIANS    1.143E+00   6.041E-01
  
:NORMS:  1/Froebius, Min, Max, Used   0.5155E+00  0.4333E+00  0.9905E+00  0.5783E+00
:INFO :  Number of Memory Steps    6 Skipping    0
:INFO :  SLambda=    0.5366210800  Max    0.5366210800
:PREDicted Charge, CTotal, PW Trust    1.806E-01   8.045E-02   1.437E-02
:PREDicted DMix, Beta, BLim   7.4250E-01  1.3246E+00  8.5436E-01

Eigenvalues, unscaled except for SY+YY
   #     SY Real        SY Imag          SS             YY         SY+YY Real      SY+YY Imag
   1   1.735489E+00   0.000000E+00   1.139395E+00   5.521874E+00   6.456291E+00   0.000000E+00
   2   4.751877E-01   0.000000E+00   4.468793E-01   4.630804E-01   7.147179E-01   0.000000E+00
   3   1.237248E-02   0.000000E+00   8.387671E-03   1.500312E-02   2.188012E-02   0.000000E+00
   4   3.417303E-16   0.000000E+00   2.236175E-08   4.134891E-05   4.472130E-05   0.000000E+00
   5   9.861716E-08   2.170860E-08   4.077999E-09   1.194827E-06   1.316103E-06   0.000000E+00
   6   9.861716E-08  -2.170860E-08   1.407592E-16   1.415883E-07   1.434945E-07   0.000000E+00
 
:INFO :  Singular value  6.457E+00 Weight  1.000E+00 Projection  1.126E-02
:INFO :  Singular value  7.146E-01 Weight  1.000E+00 Projection  5.311E-03
:INFO :  Singular value  2.188E-02 Weight  9.994E-01 Projection -7.710E-01
:INFO :  Singular value  4.475E-05 Weight  6.525E-03 Projection  4.495E-03
:INFO :  Singular value  1.315E-06 Weight  5.675E-06 Projection -1.001E-04
:INFO :  Singular value  1.435E-07 Weight  6.751E-08 Projection -2.360E-06
:RANK :  ACTIVE   3.01/6  =  50.10 % ; YY RANK   3.00/6  =  50.07 %
 
:BLIM :  VZERO Control Off
:TRUST:  Step 8.41E-01  Charge 2.21E-01 (e) CTO  2.22E-01 (e) PW  2.63E-01 (e)
:DTRUS:  Lambda    5.475E-02 Increment    3.638E-12 Iterations    95 DMIX    2.013E-01
:INFOA:  Angle SubSpace to MSR1      0.52
:DIRM :  MEMORY  6/8  SCALE   1.000 RED  0.28 PRED  0.29 NEXT  0.27 
:INFO :  Limited by Atoms F by Step T

:TRAVE:  Charge 7.19E-02 (e) CTO  3.30E-02 (e) PW  4.45E-02 (e)
:DIRP :  |MSR1|= 4.646E-02 |PRATT|= 5.527E-02 ANGLE=  10.9 DEGREES
:DIRQ :  |MSR1|= 6.851E-02 |PRATT|= 8.144E-02 ANGLE=  10.9 DEGREES
:DIRT :  |MSR1|= 8.278E-02 |PRATT|= 9.842E-02 ANGLE=  10.9 DEGREES
:MIX  :   MSD1   REGULARIZATION:  5.52E-04 GREED: 0.20211  LMStep 0.94  0.8410 Step           
     
       CHARGES OF MIXED CHARGE DENSITY
:CTO   : INTERSTITIAL CHARGE =     1.386050
:CPC   : PW Pseudocharge     =     5.375910
:CTO001: CHARGE SPHERE  1    =    10.395422
:CTO002: CHARGE SPHERE  2    =     8.218528

:NEC03: NUCLEAR AND ELECTRONIC CHARGE     20.00000    20.00000

PW CHANGE     H    K    L      Current       Change    Residue
:PTO001:      0    0    0  5.36683588E-02  6.751E-04  8.151E-04
:PTO002:     -1   -1   -1 -8.86236999E-02 -9.276E-04 -1.341E-03
:PTO003:      0    0   -2  9.87019979E-02  1.413E-03  2.327E-03
:PTO004:      0   -2   -2  7.32626809E-02 -1.834E-03 -1.418E-03
:PTO005:     -1   -1   -3 -1.00878542E-02  5.068E-03  5.800E-03
:PTO006:     -2   -2   -2  1.73041659E-02 -1.470E-03 -1.467E-03
:PTO007:      0    0   -4  4.67179862E-03 -5.079E-04 -4.777E-04
:PTO008:     -1   -3   -3  9.71478813E-03  7.495E-04  8.043E-04
:PTO009:      0   -2   -4 -4.79704899E-04 -1.814E-03 -1.958E-03
:PTO010:     -2   -2   -4 -7.28919744E-03 -1.273E-03 -1.488E-03
:PTO011:     -3   -3   -3  2.12409675E-03 -1.002E-04 -1.252E-04
:PTO012:     -1   -1   -5  5.69337015E-03 -3.936E-04 -5.025E-04

:ENE  : ********** TOTAL ENERGY IN Ry =         -548.93631867

 Flat Integration
 New Mode for Coulomb Integral
 Consistent 3/8+Simpson combinations
 Extension of core to zero
 LDM version in phi
 Fifth-order quadrature in outwin


            ---------
:ITE008:  8. ITERATION
            ---------

:NATO :    2 INDEPENDENT AND    2 TOTAL ATOMS IN UNITCELL
       SUBSTANCE: MgO_convergence                                             

       LATTICE                      = F   
:POT  : POTENTIAL OPTION EX_LDA EC_LDA VX_LDA VC_LDA
:LAT  : LATTICE CONSTANTS=  7.95801  7.95801  7.95801    1.571    1.571    1.571
:VOL  : UNIT CELL VOLUME =     125.99528
       MODE OF CALCULATION IS       = RELA
       NON-SPINPOLARIZED CALCULATION
:IFFT  : FFT-parameters:   64   64   64 Factor: 2.00


   CONVERGENCE PARAMETER FOR PSEUDOCHARGE: NCON=  9
   MAXIMAL VALUE OF RMT(JATOM)*ABSK(NKK) : RK  =23.60520


:VKCOUL :  VK-COUL convergence: 0.992E-06
       ATOMNUMBER=  1 Mg1        VCOUL-ZERO =  0.19263E+00
       ATOMNUMBER=  2 O 1        VCOUL-ZERO =  0.45859E+00
:FIT001: LUSE= 13 SIGMA OF V-XC FIT FOR ATOM  1  0.5367792E-02
:FIT001: LUSE= 13 SIGMA OF V-XC FIT FOR ATOM  1  0.5367792E-02
:FIT002: LUSE= 13 SIGMA OF V-XC FIT FOR ATOM  2  0.7122812E-04
:FIT002: LUSE= 13 SIGMA OF V-XC FIT FOR ATOM  2  0.7122812E-04
:DEN  : DENSITY INTEGRAL  =          -266.98316779   (Ry)
       ELS_POTENTIAL_AT Z=0 and Z=0.5:  -1.99797  -1.99797
       ELS_POTENTIAL_AT Y=0 and Y=0.5:   0.00000   0.00000
:VZERO:v0,v0c,v0x  -3.20163  -1.99797  -1.20366 v5,v5c,v5x  -3.20163  -1.99797  -1.20366
:VZERY:v0,v0c,v0x  -0.78899   0.00000  -0.78899 v5,v5c,v5x  -0.78899   0.00000  -0.78899
:VZERX:v0,v0c,v0x  -0.78899   0.00000  -0.78899 v5,v5c,v5x  -0.78899   0.00000  -0.78899
:LMAX-WF:   10   Non-Spherical LMAX:   4

          ATOMIC SPHERE DEPENDENT PARAMETERS FOR ATOM  Mg1       
:e__0001: OVERALL ENERGY PARAMETER IS    0.0284
          OVERALL BASIS SET ON ATOM IS LAPW
:E0_0001: E( 0)=    0.0284
             APW+lo
:E0_0001: E( 0)=   -4.9978   E(BOTTOM)=   -5.064   E(TOP)=   -4.932  1  2   151
             LOCAL ORBITAL
:E1_0001: E( 1)=    0.0284
             APW+lo
:E1_0001: E( 1)=   -2.6179   E(BOTTOM)=   -2.734   E(TOP)=   -2.502  0  1   148
             LOCAL ORBITAL

          ATOMIC SPHERE DEPENDENT PARAMETERS FOR ATOM  O 1       
:e__0002: OVERALL ENERGY PARAMETER IS    0.0284
          OVERALL BASIS SET ON ATOM IS LAPW
:E0_0002: E( 0)=    0.4284
             APW+lo
:E0_0002: E( 0)=   -0.9048   E(BOTTOM)=   -1.535   E(TOP)=   -0.275  1  2   157
             LOCAL ORBITAL
:E1_0002: E( 1)=    0.0284
             APW+lo

       K=   0.00000   0.00000   0.00000            1
:RKM  : MATRIX SIZE   194LOs:  13  RKM= 8.84  WEIGHT= 1.00  PGR:    
       EIGENVALUES ARE:
:EIG00001:      -4.9834677   -2.5868115   -2.5868115   -2.5868115   -0.9845713
:EIG00006:       0.2649455    0.2649455    0.2649455    0.6090181    1.4104004
:EIG00011:       1.4104004    1.4104004    1.7034976
       ********************************************************

:KPT   :      NUMBER OF K-POINTS:    72
       Insulator, EF-inconsistency corrected
:GAP (global)   :  0.344073 Ry =     4.681 eV (accurate value if proper k-mesh)
         Bandranges (emin - emax) and occupancy:
:BAN00001:   1   -4.983468   -4.982458  2.00000000
:BAN00002:   2   -2.593565   -2.586811  2.00000000
:BAN00003:   3   -2.590684   -2.586811  2.00000000
:BAN00004:   4   -2.589273   -2.586811  2.00000000
:BAN00005:   5   -0.984571   -0.861317  2.00000000
:BAN00006:   6   -0.079104    0.264946  2.00000000
:BAN00007:   7    0.037863    0.264946  2.00000000
:BAN00008:   8    0.132588    0.264946  2.00000000
:BAN00009:   9    0.609018    1.113961  0.00000000
:BAN00010:  10    0.978404    1.410400  0.00000000
:BAN00011:  11    1.144890    1.477194  0.00000000
:BAN00012:  12    1.389713    1.659886  0.00000000
:BAN00013:  13    1.539554    1.723136  0.00000000
        Energy to separate low and high energystates:   -0.12910


:NOE  : NUMBER OF ELECTRONS          =   16.000

:FER  : F E R M I - ENERGY(TETRAH.M.)=   0.2649455349
:GMA  : POTENTIAL AND CHARGE CUT-OFF  12.00 Ry**.5

:POS001: ATOM    1 X,Y,Z = 0.00000 0.00000 0.00000  MULT= 1  ZZ= 12.000  Mg1       

       LMMAX  5
       LM=   0 0  4 0  4 4  6 0  6 4

:CHA001: TOTAL VALENCE CHARGE INSIDE SPHERE   1 =   8.3876    (RMT=  1.9800 )
:PCS001: PARTIAL CHARGES SPHERE =  1 S,P,D,F,      D-EG,D-T2G 
:QTL001: 2.1391 6.1377 0.0910 0.0162 0.0000 0.0000 0.0000 0.0661 0.0249 0.0000 0.0000 0.0000
        Q-s-low E-s-low   Q-p-low E-p-low   Q-d-low E-d-low   Q-f-low E-f-low
:EPL001:  2.0126 -4.9461    5.9755 -2.5821    0.0103 -0.8775    0.0022 -0.8918
        Q-s-hi  E-s-hi    Q-p-hi  E-p-hi    Q-d-hi  E-d-hi    Q-f-hi  E-f-hi 
[...]
        Q-s-low E-s-low   Q-p-low E-p-low   Q-d-low E-d-low   Q-f-low E-f-low
:EPL001:  2.0127 -4.9500    5.9757 -2.5863    0.0103 -0.8749    0.0022 -0.8892
        Q-s-hi  E-s-hi    Q-p-hi  E-p-hi    Q-d-hi  E-d-hi    Q-f-hi  E-f-hi 
:EPH001:  0.1269  0.0238    0.1627  0.1010    0.0810  0.1439    0.0140  0.1631

:POS002: ATOM    2 X,Y,Z = 0.50000 0.00000 0.00000  MULT= 1  ZZ=  8.000  O 1       

       LMMAX  5
       LM=   0 0  4 0  4 4  6 0  6 4

:CHA002: TOTAL VALENCE CHARGE INSIDE SPHERE   2 =   6.2300    (RMT=  1.9800 )
:PCS002: PARTIAL CHARGES SPHERE =  2 S,P,D,F,      D-EG,D-T2G 
:QTL002: 1.7861 4.4293 0.0113 0.0024 0.0000 0.0000 0.0000 0.0041 0.0072 0.0000 0.0000 0.0000
        Q-s-low E-s-low   Q-p-low E-p-low   Q-d-low E-d-low   Q-f-low E-f-low
:EPL002:  1.7508 -0.8907    0.0062 -2.0597    0.0024 -2.5677    0.0011 -2.7272
        Q-s-hi  E-s-hi    Q-p-hi  E-p-hi    Q-d-hi  E-d-hi    Q-f-hi  E-f-hi 
:EPH002:  0.0352  0.0548    4.4231  0.1329    0.0090  0.1139    0.0013  0.1496

:CHA  : TOTAL VALENCE CHARGE INSIDE UNIT CELL =      16.000000

:SUM  : SUM OF EIGENVALUES =         -26.586525392


        1.ATOM      Mg1                   1 CORE STATES
:1S 001: 1S                 -91.272171249 Ry

        2.ATOM      O 1                   1 CORE STATES
:1S 002: 1S                 -36.427058954 Ry
:CINT001 Core Integral Atom   1    2.000000
:CINT002 Core Integral Atom   2    2.000000

       DENSITY AT NUCLEUS
        JATOM        VALENCE       SEMI-CORE          CORE           TOTAL
:RTO001:   1       70.211468        0.000000     1070.179208     1140.390676
:RTO002:   2       14.659396        0.000000      299.386538      314.045934
     
       CHARGES OF NEW CHARGE DENSITY
:NTO   : INTERSTITIAL CHARGE =     1.380965
:NPC   : PW Pseudocharge     =     5.393982
:NTO001: CHARGE SPHERE  1    =    10.389064
:NTO002: CHARGE SPHERE  2    =     8.229966

:NEC01: NUCLEAR AND ELECTRONIC CHARGE     20.00000    20.00000
     
       CHARGES OF OLD CHARGE DENSITY
:OTO   : INTERSTITIAL CHARGE =     1.381642
:OPC   : PW Pseudocharge     =     5.393433
:OTO001: CHARGE SPHERE  1    =    10.389338
:OTO002: CHARGE SPHERE  2    =     8.229020

:NEC02: NUCLEAR AND ELECTRONIC CHARGE     20.00000    20.00000
     
       CONVERGENCE TEST
:DTO001: DIFFERENCE IN SPHERE  1 =  0.0010732
:DTO002: DIFFERENCE IN SPHERE  2 =  0.0024874

:DIS  :  CHARGE DISTANCE       ( 0.0024874 for atom    2 spin 1)      0.0017803
 PW Mixed is           65
 
******************************************************
* MULTISECANT MIXING VER9 RELEASE 10.4.0              *
* Standard Mode with controls                        *
* Fixed density scale                                *
* Regularization       1.000E-04                     *
* Trust Upper Limit    5.000E+00                     *
* Max Number of Memory Steps    8                    *
******************************************************
 
:PWTMP   6.0965E+01  1.2800E+02  1.2600E+02
:PLANE:  PW TOTAL      2.1468 DISTAN   1.38E-03  6.45E-02 %
:CHARG:  CLM/ATOM     35.1227 DISTAN   1.37E-03  3.91E-03 %
 
Step History
        DMIX         DMIXT        Red     Pred      Trust     Lambda    MagRel    MagAbs     Beta
  2   3.5000E-02   3.5000E-02  7.32E-01  1.00E+00 -1.00E+01  1.00E+00  3.50E-02  4.02E-02  1.00E+00
  3   4.2602E-02   4.2602E-02  9.57E-01  1.00E+00 -1.00E+01  3.52E-01  4.26E-02  3.58E-02  1.00E+00
  4   2.8214E-02   2.8214E-02  9.51E-01  8.19E-01  2.98E-01  1.23E+00  9.06E-02  7.29E-02  8.00E-01
  5   7.0535E-02   1.5406E-02  7.72E-01  6.43E-01  3.90E-01  1.62E+00  9.27E-02  7.08E-02  1.00E+00
  6   3.2338E-02   2.1120E-02  5.91E-01  5.49E-01  5.05E-01  2.32E+00  1.77E-01  1.04E-01  1.00E+00
  7   8.0844E-02   8.0844E-02  2.82E-01  2.93E-01  6.31E-01  5.37E-01  5.13E-01  1.79E-01  1.00E+00
  8   2.0211E-01   2.0132E-01  2.29E-01  2.72E-01  8.41E-01  1.00E+00  8.41E-01  8.28E-02  1.00E+00
  9   1.0654E-01   1.0654E-01  6.73E-01  8.42E-01  2.39E+00  1.18E+00  5.37E-01  1.21E-02  1.00E+00
 10   2.6635E-01   2.6635E-01 -1.00E+00  2.23E-01  3.19E+00  1.00E+00  6.19E-01  9.39E-03  1.00E+00
:JACOBIANS    1.382E+00   1.346E+00
  
:NORMS:  1/Froebius, Min, Max, Used   0.6794E+00  0.5089E+00  0.9985E+00  0.7206E+00
:INFO :  Number of Memory Steps    8 Skipping    1
:INFO :  SLambda=    1.5040482532  Max    1.5040482532
:PREDicted Charge, CTotal, PW Trust    3.247E-03   1.680E-03   6.170E-04
:PREDicted DMix, Beta, BLim   9.6379E-02  1.0840E+00  7.1491E-01

Eigenvalues, unscaled except for SY+YY
   #     SY Real        SY Imag          SS             YY         SY+YY Real      SY+YY Imag
   1   2.750689E+00   0.000000E+00   2.731023E+00   5.259514E+00   9.132263E+00   0.000000E+00
   2   1.028179E+00   0.000000E+00   6.065428E-01   1.797271E+00   3.489151E+00   0.000000E+00
   3   5.358891E-01   0.000000E+00   2.920672E-01   8.695360E-01   1.793961E+00   0.000000E+00
   4   7.336800E-02   0.000000E+00   6.307295E-02   7.326886E-02   1.841334E-01   0.000000E+00
   5   8.402054E-05   0.000000E+00   5.523430E-05   3.979753E-04   5.629058E-04   0.000000E+00
   6   8.239021E-06   0.000000E+00   2.313317E-06   1.181623E-05   2.105176E-05   0.000000E+00
   7   1.364221E-08   0.000000E+00   3.075217E-09   1.389010E-07   1.727355E-07   0.000000E+00
   8   8.393700E-10   0.000000E+00   1.056955E-11   1.726285E-08   1.480039E-08   0.000000E+00
 
:INFO :  Singular value  9.171E+00 Weight  1.000E+00 Projection -2.623E-06
:INFO :  Singular value  3.478E+00 Weight  1.000E+00 Projection -1.065E-03
:INFO :  Singular value  1.792E+00 Weight  1.000E+00 Projection  2.475E-04
:INFO :  Singular value  1.841E-01 Weight  1.000E+00 Projection  1.136E-03
:INFO :  Singular value  5.631E-04 Weight  5.340E-01 Projection -1.964E-02
:INFO :  Singular value  2.107E-05 Weight  1.602E-03 Projection -1.087E-03
:INFO :  Singular value  1.753E-07 Weight  1.111E-07 Projection -2.048E-07
:INFO :  Singular value  1.457E-08 Weight  7.669E-10 Projection  1.053E-08
:RANK :  ACTIVE   4.54/8  =  56.70 % ; YY RANK   4.36/8  =  54.56 %
 
:BLIM :  VZERO Control Off
:TRUST:  Step 4.25E+00  Charge 1.73E-01 (e) CTO  1.42E-01 (e) PW  1.68E-01 (e)
:DIRM :  MEMORY  8/8  SCALE   1.000 RED  0.20 PRED  0.22 NEXT  0.88 
:TRAVE:  Charge 1.08E-02 (e) CTO  4.94E-03 (e) PW  6.51E-03 (e)
:DIRP :  |MSR1|= 6.752E-04 |PRATT|= 1.384E-03 ANGLE=  21.1 DEGREES
:DIRQ :  |MSR1|= 9.349E-04 |PRATT|= 2.747E-03 ANGLE=  40.1 DEGREES
:DIRT :  |MSR1|= 1.153E-03 |PRATT|= 3.076E-03 ANGLE=  37.0 DEGREES
:MIX  :   MSE1   REGULARIZATION:  5.26E-04 GREED: 0.14457  Newton 1.00  0.3749                
     
       CHARGES OF MIXED CHARGE DENSITY
:CTO   : INTERSTITIAL CHARGE =     1.381561
:CPC   : PW Pseudocharge     =     5.394061
:CTO001: CHARGE SPHERE  1    =    10.389177
:CTO002: CHARGE SPHERE  2    =     8.229262

:NEC03: NUCLEAR AND ELECTRONIC CHARGE     20.00000    20.00000

PW CHANGE     H    K    L      Current       Change    Residue
:PTO001:      0    0    0  5.37767992E-02  4.351E-06 -8.294E-07
:PTO002:     -1   -1   -1 -8.85136653E-02  3.646E-05  8.178E-05
:PTO003:      0    0   -2  9.92081315E-02  1.797E-05  4.419E-05
:PTO004:      0   -2   -2  7.31719282E-02 -1.146E-05  7.495E-06
:PTO005:     -1   -1   -3 -8.86555652E-03  8.789E-05  1.639E-04
:PTO006:     -2   -2   -2  1.71406080E-02 -6.854E-06  5.781E-06
:PTO007:      0    0   -4  4.65832728E-03  3.545E-06  1.906E-05
:PTO008:     -1   -3   -3  9.84546750E-03  7.614E-06  1.402E-05
:PTO009:      0   -2   -4 -6.69093296E-04  2.858E-06  3.670E-05
:PTO010:     -2   -2   -4 -7.48289304E-03 -1.534E-06  1.380E-05
:PTO011:     -3   -3   -3  2.09229477E-03 -2.572E-06 -4.489E-06
:PTO012:     -1   -1   -5  5.55994280E-03 -1.030E-05 -2.063E-05

:ENE  : ********** TOTAL ENERGY IN Ry =         -548.93622510

 Flat Integration
 New Mode for Coulomb Integral
 Consistent 3/8+Simpson combinations
 Extension of core to zero
 LDM version in phi
 Fifth-order quadrature in outwin


            ---------
:ITE011: 11. ITERATION
            ---------

:NATO :    2 INDEPENDENT AND    2 TOTAL ATOMS IN UNITCELL
       SUBSTANCE: MgO_convergence                                             

       LATTICE                      = F   
:POT  : POTENTIAL OPTION EX_LDA EC_LDA VX_LDA VC_LDA
:LAT  : LATTICE CONSTANTS=  7.95801  7.95801  7.95801    1.571    1.571    1.571
:VOL  : UNIT CELL VOLUME =     125.99528
       MODE OF CALCULATION IS       = RELA
       NON-SPINPOLARIZED CALCULATION
:IFFT  : FFT-parameters:   64   64   64 Factor: 2.00


   CONVERGENCE PARAMETER FOR PSEUDOCHARGE: NCON=  9
   MAXIMAL VALUE OF RMT(JATOM)*ABSK(NKK) : RK  =23.60520


:VKCOUL :  VK-COUL convergence: 0.993E-06
       ATOMNUMBER=  1 Mg1        VCOUL-ZERO =  0.19215E+00
       ATOMNUMBER=  2 O 1        VCOUL-ZERO =  0.46098E+00
:FIT001: LUSE= 13 SIGMA OF V-XC FIT FOR ATOM  1  0.5648796E-02
:FIT001: LUSE= 13 SIGMA OF V-XC FIT FOR ATOM  1  0.5648796E-02
:FIT002: LUSE= 13 SIGMA OF V-XC FIT FOR ATOM  2  0.7308218E-04
:FIT002: LUSE= 13 SIGMA OF V-XC FIT FOR ATOM  2  0.7308218E-04
:DEN  : DENSITY INTEGRAL  =          -266.94921407   (Ry)
       ELS_POTENTIAL_AT Z=0 and Z=0.5:  -1.99896  -1.99896
       ELS_POTENTIAL_AT Y=0 and Y=0.5:   0.00000   0.00000
:VZERO:v0,v0c,v0x  -3.20580  -1.99896  -1.20684 v5,v5c,v5x  -3.20580  -1.99896  -1.20684
:VZERY:v0,v0c,v0x  -0.78895   0.00000  -0.78895 v5,v5c,v5x  -0.78895   0.00000  -0.78895
:VZERX:v0,v0c,v0x  -0.78895   0.00000  -0.78895 v5,v5c,v5x  -0.78895   0.00000  -0.78895
:LMAX-WF:   10   Non-Spherical LMAX:   4

          ATOMIC SPHERE DEPENDENT PARAMETERS FOR ATOM  Mg1       
:e__0001: OVERALL ENERGY PARAMETER IS    0.0659
          OVERALL BASIS SET ON ATOM IS LAPW
:E0_0001: E( 0)=    0.0659
             APW+lo
:E0_0001: E( 0)=   -5.0018   E(BOTTOM)=   -5.067   E(TOP)=   -4.936  1  2   149
             LOCAL ORBITAL
:E1_0001: E( 1)=    0.0659
             APW+lo
:E1_0001: E( 1)=   -2.6221   E(BOTTOM)=   -2.738   E(TOP)=   -2.507  0  1   147
             LOCAL ORBITAL

          ATOMIC SPHERE DEPENDENT PARAMETERS FOR ATOM  O 1       
:e__0002: OVERALL ENERGY PARAMETER IS    0.0659
          OVERALL BASIS SET ON ATOM IS LAPW
:E0_0002: E( 0)=    0.4659
             APW+lo
:E0_0002: E( 0)=   -0.9021   E(BOTTOM)=   -1.532   E(TOP)=   -0.272  1  2   169
             LOCAL ORBITAL
:E1_0002: E( 1)=    0.0659
             APW+lo

       K=   0.00000   0.00000   0.00000            1
:RKM  : MATRIX SIZE   194LOs:  13  RKM= 8.84  WEIGHT= 1.00  PGR:    
       EIGENVALUES ARE:
:EIG00001:      -4.9875523   -2.5910448   -2.5910448   -2.5910448   -0.9822763
:EIG00006:       0.2673412    0.2673412    0.2673412    0.6101970    1.4111987
:EIG00011:       1.4111987    1.4111987    1.7047484
       ********************************************************

:KPT   :      NUMBER OF K-POINTS:    72
       Insulator, EF-inconsistency corrected
:GAP (global)   :  0.342856 Ry =     4.665 eV (accurate value if proper k-mesh)
         Bandranges (emin - emax) and occupancy:
:BAN00001:   1   -4.987552   -4.986543  2.00000000
:BAN00002:   2   -2.597761   -2.591045  2.00000000
:BAN00003:   3   -2.594887   -2.591045  2.00000000
:BAN00004:   4   -2.593497   -2.591045  2.00000000
:BAN00005:   5   -0.982276   -0.858745  2.00000000
:BAN00006:   6   -0.077419    0.267341  2.00000000
:BAN00007:   7    0.039710    0.267341  2.00000000
:BAN00008:   8    0.134658    0.267341  2.00000000
:BAN00009:   9    0.610197    1.114806  0.00000000
:BAN00010:  10    0.978944    1.411199  0.00000000
:BAN00011:  11    1.145121    1.477690  0.00000000
:BAN00012:  12    1.390231    1.659095  0.00000000
:BAN00013:  13    1.539685    1.763162  0.00000000
        Energy to separate low and high energystates:   -0.12742


:NOE  : NUMBER OF ELECTRONS          =   16.000

:FER  : F E R M I - ENERGY(TETRAH.M.)=   0.2673412151
:GMA  : POTENTIAL AND CHARGE CUT-OFF  12.00 Ry**.5

:POS001: ATOM    1 X,Y,Z = 0.00000 0.00000 0.00000  MULT= 1  ZZ= 12.000  Mg1       

       LMMAX  5
       LM=   0 0  4 0  4 4  6 0  6 4

:CHA001: TOTAL VALENCE CHARGE INSIDE SPHERE   1 =   8.3890    (RMT=  1.9800 )
:PCS001: PARTIAL CHARGES SPHERE =  1 S,P,D,F,      D-EG,D-T2G 
:QTL001: 2.1395 6.1384 0.0912 0.0162 0.0000 0.0000 0.0000 0.0663 0.0250 0.0000 0.0000 0.0000
        Q-s-low E-s-low   Q-p-low E-p-low   Q-d-low E-d-low   Q-f-low E-f-low
:EPL001:  2.0127 -4.9500    5.9757 -2.5863    0.0103 -0.8750    0.0022 -0.8893
        Q-s-hi  E-s-hi    Q-p-hi  E-p-hi    Q-d-hi  E-d-hi    Q-f-hi  E-f-hi 
:EPH001:  0.1268  0.0237    0.1626  0.1009    0.0810  0.1438    0.0140  0.1630

:POS002: ATOM    2 X,Y,Z = 0.50000 0.00000 0.00000  MULT= 1  ZZ=  8.000  O 1       

       LMMAX  5
       LM=   0 0  4 0  4 4  6 0  6 4

:CHA002: TOTAL VALENCE CHARGE INSIDE SPHERE   2 =   6.2303    (RMT=  1.9800 )
:PCS002: PARTIAL CHARGES SPHERE =  2 S,P,D,F,      D-EG,D-T2G 
:QTL002: 1.7861 4.4296 0.0113 0.0024 0.0000 0.0000 0.0000 0.0041 0.0072 0.0000 0.0000 0.0000
        Q-s-low E-s-low   Q-p-low E-p-low   Q-d-low E-d-low   Q-f-low E-f-low
:EPL002:  1.7509 -0.8908    0.0062 -2.0600    0.0024 -2.5678    0.0011 -2.7273
        Q-s-hi  E-s-hi    Q-p-hi  E-p-hi    Q-d-hi  E-d-hi    Q-f-hi  E-f-hi 
:EPH002:  0.0352  0.0547    4.4235  0.1328    0.0090  0.1138    0.0013  0.1495

:CHA  : TOTAL VALENCE CHARGE INSIDE UNIT CELL =      16.000000

:SUM  : SUM OF EIGENVALUES =         -26.587315166


        1.ATOM      Mg1                   1 CORE STATES
:1S 001: 1S                 -91.272325971 Ry

        2.ATOM      O 1                   1 CORE STATES
:1S 002: 1S                 -36.427520196 Ry
:CINT001 Core Integral Atom   1    2.000000
:CINT002 Core Integral Atom   2    2.000000

       DENSITY AT NUCLEUS
        JATOM        VALENCE       SEMI-CORE          CORE           TOTAL
:RTO001:   1       70.211284        0.000000     1070.179868     1140.391152
:RTO002:   2       14.660505        0.000000      299.386694      314.047199
     
       CHARGES OF NEW CHARGE DENSITY
:NTO   : INTERSTITIAL CHARGE =     1.380707
:NPC   : PW Pseudocharge     =     5.393813
:NTO001: CHARGE SPHERE  1    =    10.388968
:NTO002: CHARGE SPHERE  2    =     8.230321

:NEC01: NUCLEAR AND ELECTRONIC CHARGE     20.00000    20.00000
     
       CHARGES OF OLD CHARGE DENSITY
:OTO   : INTERSTITIAL CHARGE =     1.381561
:OPC   : PW Pseudocharge     =     5.394061
:OTO001: CHARGE SPHERE  1    =    10.389177
:OTO002: CHARGE SPHERE  2    =     8.229262

:NEC02: NUCLEAR AND ELECTRONIC CHARGE     20.00000    20.00000
     
       CONVERGENCE TEST
:DTO001: DIFFERENCE IN SPHERE  1 =  0.0011113
:DTO002: DIFFERENCE IN SPHERE  2 =  0.0014894

:DIS  :  CHARGE DISTANCE       ( 0.0014894 for atom    2 spin 1)      0.0013003
 PW Mixed is           65
 
******************************************************
* MULTISECANT MIXING VER9 RELEASE 10.4.0              *
* Standard Mode with controls                        *
* Fixed density scale                                *
* Regularization       1.000E-04                     *
* Trust Upper Limit    5.000E+00                     *
* Max Number of Memory Steps    8                    *
******************************************************
 
:PWTMP   6.0965E+01  1.2800E+02  1.2600E+02
:PLANE:  PW TOTAL      2.1468 DISTAN   8.20E-04  3.82E-02 %
:CHARG:  CLM/ATOM     35.1226 DISTAN   9.34E-04  2.66E-03 %
 
Step History
        DMIX         DMIXT        Red     Pred      Trust     Lambda    MagRel    MagAbs     Beta
  3   4.2602E-02   4.2602E-02  9.57E-01  1.00E+00 -1.00E+01  3.52E-01  4.26E-02  3.58E-02  1.00E+00
  4   2.8214E-02   2.8214E-02  9.51E-01  8.19E-01  2.98E-01  1.23E+00  9.06E-02  7.29E-02  8.00E-01
  5   7.0535E-02   1.5406E-02  7.72E-01  6.43E-01  3.90E-01  1.62E+00  9.27E-02  7.08E-02  1.00E+00
  6   3.2338E-02   2.1120E-02  5.91E-01  5.49E-01  5.05E-01  2.32E+00  1.77E-01  1.04E-01  1.00E+00
  7   8.0844E-02   8.0844E-02  2.82E-01  2.93E-01  6.31E-01  5.37E-01  5.13E-01  1.79E-01  1.00E+00
  8   2.0211E-01   2.0132E-01  2.29E-01  2.72E-01  8.41E-01  1.00E+00  8.41E-01  8.28E-02  1.00E+00
  9   1.0654E-01   1.0654E-01  6.73E-01  8.42E-01  2.39E+00  1.18E+00  5.37E-01  1.21E-02  1.00E+00
 10   2.6635E-01   2.6635E-01  2.03E-01  2.23E-01  3.19E+00  1.50E+00  6.19E-01  9.39E-03  1.00E+00
 11   1.4457E-01   1.4457E-01 -1.00E+00  8.85E-01  4.25E+00  1.00E+00  3.75E-01  1.15E-03  1.00E+00
:JACOBIANS    1.507E+00   1.774E+00
  
:NORMS:  1/Froebius, Min, Max, Used   0.6998E+00  0.5655E+00  0.1030E+01  0.7839E+00
:INFO :  Number of Memory Steps    8 Skipping    2
:INFO :  SLambda=    1.0637926164  Max    1.0637926164
:PREDicted Charge, CTotal, PW Trust    1.339E-03   9.512E-04   1.488E-04
:PREDicted DMix, Beta, BLim   7.6947E-01  1.9720E+00  8.4643E-01

Eigenvalues, unscaled except for SY+YY
   #     SY Real        SY Imag          SS             YY         SY+YY Real      SY+YY Imag
   1   2.611749E+00   0.000000E+00   2.732485E+00   4.446955E+00   6.737788E+00   0.000000E+00
   2   1.436315E+00   0.000000E+00   8.121337E-01   2.590989E+00   4.532217E+00   0.000000E+00
   3   5.022446E-01   0.000000E+00   2.831803E-01   8.285203E-01   1.435172E+00   0.000000E+00
   4   1.022493E-01   0.000000E+00   7.722441E-02   1.154596E-01   2.256182E-01   0.000000E+00
   5   1.583235E-02   0.000000E+00   1.325109E-02   1.784390E-02   3.516205E-02   0.000000E+00
   6   5.333575E-05   0.000000E+00   9.468929E-06   2.279684E-04   2.951901E-04   0.000000E+00
   7   5.394494E-07   0.000000E+00   8.196826E-08   3.783369E-06   4.852243E-06   0.000000E+00
   8   1.156811E-10   0.000000E+00   2.109069E-10   1.001858E-09   1.137047E-09   0.000000E+00
 
:INFO :  Singular value  6.800E+00 Weight  1.000E+00 Projection -2.146E-05
:INFO :  Singular value  4.494E+00 Weight  1.000E+00 Projection -1.530E-04
:INFO :  Singular value  1.434E+00 Weight  1.000E+00 Projection  5.492E-05
:INFO :  Singular value  2.256E-01 Weight  1.000E+00 Projection  4.174E-03
:INFO :  Singular value  3.517E-02 Weight  9.998E-01 Projection  1.034E-02
:INFO :  Singular value  2.955E-04 Weight  3.064E-01 Projection -1.390E-03
:INFO :  Singular value  4.846E-06 Weight  1.187E-04 Projection  4.959E-06
:INFO :  Singular value  1.137E-09 Weight  6.537E-12 Projection -7.714E-12
:RANK :  ACTIVE   5.31/8  =  66.33 % ; YY RANK   5.21/8  =  65.09 %
 
:BLIM :  VZERO Control Off
:TRUST:  Step 5.67E+00  Charge 1.38E-01 (e) CTO  1.14E-01 (e) PW  1.34E-01 (e)
:DIRM :  MEMORY  8/8  SCALE   1.000 RED  0.66 PRED  0.88 NEXT  0.06 
:TRAVE:  Charge 5.87E-03 (e) CTO  2.84E-03 (e) PW  3.43E-03 (e)
:DIRP :  |MSR1|= 8.468E-04 |PRATT|= 8.202E-04 ANGLE=   6.5 DEGREES
:DIRQ :  |MSR1|= 1.548E-03 |PRATT|= 1.869E-03 ANGLE=  16.1 DEGREES
:DIRT :  |MSR1|= 1.764E-03 |PRATT|= 2.041E-03 ANGLE=  15.5 DEGREES
:MIX  :   MSE1   REGULARIZATION:  4.45E-04 GREED: 0.35000  Newton 1.00  0.8645                
     
       CHARGES OF MIXED CHARGE DENSITY
:CTO   : INTERSTITIAL CHARGE =     1.380823
:CPC   : PW Pseudocharge     =     5.394066
:CTO001: CHARGE SPHERE  1    =    10.388982
:CTO002: CHARGE SPHERE  2    =     8.230195

:NEC03: NUCLEAR AND ELECTRONIC CHARGE     20.00000    20.00000

PW CHANGE     H    K    L      Current       Change    Residue
:PTO001:      0    0    0  5.37709750E-02 -5.824E-06 -8.571E-06
:PTO002:     -1   -1   -1 -8.84669157E-02  4.675E-05  4.328E-05
:PTO003:      0    0   -2  9.92407256E-02  3.259E-05  2.933E-05
:PTO004:      0   -2   -2  7.31990384E-02  2.711E-05  2.352E-05
:PTO005:     -1   -1   -3 -8.79311294E-03  7.244E-05  7.264E-05
:PTO006:     -2   -2   -2  1.71562981E-02  1.569E-05  1.429E-05
:PTO007:      0    0   -4  4.67472965E-03  1.640E-05  1.596E-05
:PTO008:     -1   -3   -3  9.84911587E-03  3.648E-06  5.854E-06
:PTO009:      0   -2   -4 -6.33824113E-04  3.527E-05  3.457E-05
:PTO010:     -2   -2   -4 -7.46712828E-03  1.576E-05  1.555E-05
:PTO011:     -3   -3   -3  2.08994183E-03 -2.353E-06 -1.833E-06
:PTO012:     -1   -1   -5  5.54876775E-03 -1.118E-05 -1.006E-05

:ENE  : ********** TOTAL ENERGY IN Ry =         -548.93622157

