 +-------------------------------------------------+
 |                                                 |
 |      CCC   AA    SSS  TTTTT  EEEEE  PPPP        |
 |     C     A  A  S       T    E      P   P       |
 |     C     AAAA   SS     T    EEE    PPPP        |
 |     C     A  A     S    T    E      P           |
 |      CCC  A  A  SSS     T    EEEEE  P           |
 |                                                 |
 +-------------------------------------------------+
 |                                                 |
 | Welcome to Academic Release CASTEP version 23.1 |
 | Ab Initio Total Energy Program                  |
 |                                                 |
 | Authors:                                        |
 | M. Segall, M. Probert, C. Pickard, P. Hasnip,   |
 | S. Clark, K. Refson, J. R. Yates, M. Payne      |
 |                                                 |
 | Contributors:                                   |
 | P. Lindan, P. Haynes, J. White, V. Milman,      |
 | N. Govind, M. Gibson, P. Tulip, V. Cocula,      |
 | B. Montanari, D. Quigley, M. Glover,            |
 | L. Bernasconi, A. Perlov, M. Plummer,           |
 | E. McNellis, J. Meyer, J. Gale, D. Jochym       |
 | J. Aarons, B. Walker, R. Gillen, D. Jones       |
 | T. Green, I. J. Bush, C. J. Armstrong,          |
 | E. J. Higgins, E. L. Brown, M. S. McFly,        |
 | J. Wilkins, B-C. Shih, P. J. P. Byrne,          |
 | R. J. Maurer, J. C. Womack, J. Dziedzic,        |
 | A. Bartok-Partay, L. LeBlanc, T. K. Stenczel,   |
 | J. Kermode, S. Sturniolo, B. Shi, B. Durham     |
 | M. Evans, M. J. Smith                           |
 |                                                 |
 | Copyright (c) 2000 - 2022                       |
 |                                                 |
 |     Distributed under license from Cambridge    |
 |     Enterprise for academic use only.           |
 |                                                 |
 | Please cite                                     |
 |                                                 |
 |     "First principles methods using CASTEP"     |
 |                                                 |
 |         Zeitschrift fuer Kristallographie       |
 |           220(5-6) pp. 567-570 (2005)           |
 |                                                 |
 | S. J. Clark, M. D. Segall, C. J. Pickard,       |
 | P. J. Hasnip, M. J. Probert, K. Refson,         |
 | M. C. Payne                                     |
 |                                                 |
 |       in all publications arising from          |
 |              your use of CASTEP                 |
 |                                                 |
 +-------------------------------------------------+
 |                                                 |
 |              http://www.castep.org              |
 |                                                 |
 +-------------------------------------------------+
 
 
 
 Compiled for linux_x86_64_ifort on Mon, 05 Sep 2022 11:08:02 +0100
 from code version e6e5b11da+  default  Sat Aug 27 10:35:58 2022 +0100
 Compiler: Intel Fortran 18.0.3.222; Optimisation: fast
 MATHLIBS: Intel MKL(2018.0.3) (LAPACK version 3.7.0)
 FFT Lib : default
 Fundamental constants values: CODATA 2018
 
 Run started: Tue, 13 Sep 2022 16:37:16 +0100
 
 Atomic calculation performed for Si: 1s2 2s2 2p6 3s2 3p2
 
 Converged in 55 iterations to an ae energy of -7859.183 eV
 
   ============================================================                
   | Pseudopotential Report - Date of generation 13-09-2022   |                
   ------------------------------------------------------------                
   | Element: Si Ionic charge:  4.00 Level of theory: LDA     |                
   | Atomic Solver: Koelling-Harmon                           |                
   |                                                          |                
   |               Reference Electronic Structure             |                
   |         Orbital         Occupation         Energy        |                
   |            3s              2.000           -0.400        |                
   |            3p              2.000           -0.153        |                
   |                                                          |                
   |                 Pseudopotential Definition               |                
   |        Beta     l      e      Rc     scheme   norm       |                
   |          1      0   -0.400   1.797     qc      0         |                
   |          2      0    0.250   1.797     qc      0         |                
   |          3      1   -0.153   1.797     qc      0         |                
   |          4      1    0.250   1.797     qc      0         |                
   |          5      2    0.000   1.797     qc      0         |                
   |          6      2    0.250   1.797     qc      0         |                
   |         loc     3    0.000   1.797     pn      0         |                
   |                                                          |                
   | Augmentation charge Rinner = 1.255                       |                
   | Partial core correction Rc = 1.255                       |                
   ------------------------------------------------------------                
   | "3|1.8|5|6|7|30:31:32"                                   |                
   ------------------------------------------------------------                
   |      Author: Chris J. Pickard, Cambridge University      |                
   ============================================================                
 
 Pseudo atomic calculation performed for Si 3s2 3p2
 
 Converged in 17 iterations to a total energy of -163.0651 eV
 Calculation parallelised over 4 processes.
 Data is distributed by k-point(4-way)

 ************************************ Title ************************************
 

 ***************************** General Parameters ******************************
  
 output verbosity                               : normal  (1)
 write checkpoint data to                       : Si_LDA_USP_without_DW.check
 type of calculation                            : single point energy
 stress calculation                             : off
 density difference calculation                 : on
 electron localisation func (ELF) calculation   : off
 Hirshfeld analysis                             : off
 polarisation (Berry phase) analysis            : off
 molecular orbital projected DOS                : off
 deltaSCF calculation                           : off
 unlimited duration calculation
 timing information                             : on
 memory usage estimate                          : on
 write extra output files                       : on
 write final potential to formatted file        : off
 write final density to formatted file          : on
 write BibTeX reference list                    : on
 write OTFG pseudopotential files               : on
 write electrostatic potential file             : on
 write bands file                               : on
 checkpoint writing                             : both castep_bin and check files
  
 output         length unit                     : A
 output           mass unit                     : amu
 output           time unit                     : ps
 output         charge unit                     : e
 output           spin unit                     : hbar/2
 output         energy unit                     : eV
 output          force unit                     : eV/A
 output       velocity unit                     : A/ps
 output       pressure unit                     : GPa
 output     inv_length unit                     : 1/A
 output      frequency unit                     : cm-1
 output force constant unit                     : eV/A**2
 output         volume unit                     : A**3
 output   IR intensity unit                     : (D/A)**2/amu
 output         dipole unit                     : D
 output         efield unit                     : eV/A/e
 output        entropy unit                     : J/mol/K
 output    efield chi2 unit                     : pm/V
  
 wavefunctions paging                           : none
 random number generator seed                   :  163717573
 data distribution                              : optimal for this architecture
 optimization strategy                          : balance speed and memory

 *********************** Exchange-Correlation Parameters ***********************
  
 using functional                               : Local Density Approximation
 relativistic treatment                         : Koelling-Harmon
 DFT+D: Semi-empirical dispersion correction    : off

 ************************* Pseudopotential Parameters **************************
  
 pseudopotential representation                 : reciprocal space
 <beta|phi> representation                      : reciprocal space
 spin-orbit coupling                            : off

 **************************** Basis Set Parameters *****************************
  
 plane wave basis set cut-off                   :   900.0000   eV
 size of standard grid                          :     1.7500
 size of   fine   grid                          :     3.5000
 size of   fine   gmax                          :    53.7933   1/A
 largest prime factor in FFT                    :          5
 finite basis set correction                    : none

 **************************** Electronic Parameters ****************************
  
 number of  electrons                           :  32.00    
 net charge of system                           :  0.000    
 treating system as non-spin-polarized
 number of bands                                :         16

 ********************* Electronic Minimization Parameters **********************
  
 Method: Treating system as non-metallic,
         and number of  SD  steps               :          1
         and number of  CG  steps               :          4
  
 total energy / atom convergence tol.           : 0.1000E-05   eV
 max force / atom convergence tol.              : ignored
 convergence tolerance window                   :          3   cycles
 max. number of SCF cycles                      :        300
 periodic dipole correction                     : NONE

 *********************** Population Analysis Parameters ************************
  
 Population analysis with cutoff                :  3.000       A
 Population analysis output                     : summary and pdos components

 ******************************* Developer Code ********************************
  
 CALCULATE_XRD_SF:
 0 0 0
 1 1 1
 0 2 2
 1 1 3
 2 2 2
 0 0 4
 1 3 3
 2 2 4
 3 3 3
 1 1 5
 0 4 4
 1 3 5
 0 2 6
 3 3 5
 4 4 4
 1 5 5
 1 1 7
 2 4 6
 3 5 5
 1 3 7
 0 0 8
 3 3 7
 0 6 6
 2 2 8
 1 5 7
 5 5 5
 0 4 8
 3 5 7
 1 1 9
 4 6 6
 1 3 9
 4 4 8
 1 7 7
 5 5 7
 3 3 9
 2 6 8
 0 2 10
 3 7 7
 1 5 9
 3 5 9
 2 4 10
 5 7 7
 1 1 11
 0 8 8
 1 7 9
 5 5 9
 1 3 11
 0 6 10
 6 6 8
 3 7 9
 3 3 11
 4 8 8
 0 0 12
 1 5 11
 7 7 7
 4 6 10
 2 2 12
 5 7 9
 3 5 11
 0 4 12
 1 9 9
 2 8 10
 3 9 9
 1 7 11
 5 5 11
 1 1 13
 4 4 12
 3 7 11
 7 7 9
 1 3 13
 2 6 12
 5 9 9
 3 3 13
 8 8 8
 5 7 11
 1 5 13
 0 10 10
 6 8 10
 0 2 14
 1 9 11
 3 5 13
 0 8 12
 3 9 11
 7 9 9
 4 10 10
 6 6 12
 2 4 14
 1 7 13
 7 7 11
 5 5 13
 4 8 12
 5 9 11
 3 7 13
 1 1 15
 0 6 14
 1 3 15
 1 11 11
 5 7 13
 9 9 9
 3 3 15
 2 10 12
 4 6 14
 3 11 11
 1 9 13
 7 9 11
 1 5 15
 0 0 16
 3 9 13
 3 5 15
 2 8 14
 8 10 10
 2 2 16
 5 11 11
 7 7 13
 8 8 12
 0 4 16
 5 9 13
 1 7 15
 5 5 15
 6 10 12
 3 7 15
 9 9 11
 0 12 12
 4 4 16
 1 11 13
 7 11 11
 1 1 17
 0 10 14
 6 8 14
 2 6 16
 :ENDCALCULATE_XRD_SF

 *******************************************************************************
  
 
                           -------------------------------
                                      Unit Cell
                           -------------------------------
        Real Lattice(A)                      Reciprocal Lattice(1/A)
     5.4307000     0.0000000     0.0000000        1.156975216   0.000000000   0.000000000
     0.0000000     5.4307000     0.0000000        0.000000000   1.156975216   0.000000000
     0.0000000     0.0000000     5.4307000        0.000000000   0.000000000   1.156975216
 
                       Lattice parameters(A)       Cell Angles
                    a =      5.430700          alpha =   90.000000
                    b =      5.430700          beta  =   90.000000
                    c =      5.430700          gamma =   90.000000
 
                       Current cell volume =           160.164933       A**3
                                   density =             1.402829   AMU/A**3
                                           =             2.329452     g/cm^3
 
                           -------------------------------
                                     Cell Contents
                           -------------------------------
                         Total number of ions in cell =    8
                      Total number of species in cell =    1
                        Max number of any one species =    8
 
            xxxxxxxxxxxxxxxxxxxxxxxxxxxxxxxxxxxxxxxxxxxxxxxxxxxxxxxxxxxx
            x  Element    Atom        Fractional coordinates of atoms  x
            x            Number           u          v          w      x
            x----------------------------------------------------------x
            x  Si           1         0.000000   0.000000   0.000000   x 
            x  Si           2         0.500000   0.500000   0.000000   x 
            x  Si           3         0.500000   0.000000   0.500000   x 
            x  Si           4         0.000000   0.500000   0.500000   x 
            x  Si           5         0.250000   0.250000   0.250000   x 
            x  Si           6         0.750000   0.750000   0.250000   x 
            x  Si           7         0.750000   0.250000   0.750000   x 
            x  Si           8         0.250000   0.750000   0.750000   x 
            xxxxxxxxxxxxxxxxxxxxxxxxxxxxxxxxxxxxxxxxxxxxxxxxxxxxxxxxxxxx
 
 
                         No user defined ionic velocities
 
                           -------------------------------
                                   Details of Species
                           -------------------------------
 
                               Mass of species in AMU
                                    Si   28.0855000
 
                          Electric Quadrupole Moment (Barn)
                                    Si    1.0000000 No Isotope Defined
 
                          Files used for pseudopotentials:
                                    Si 3|1.8|5|6|7|30:31:32
 
                           -------------------------------
                              k-Points For BZ Sampling
                           -------------------------------
                       MP grid size for SCF calculation is 14 14 14
                            with an offset of   0.000  0.000  0.000
                       Number of kpoints used =            84
 
                           -------------------------------
                               Symmetry and Constraints
                           -------------------------------
 
                      Cell is a supercell containing 4 primitive cells
                      Maximum deviation from symmetry = 0.940008E-15     ANG
 
                      Number of symmetry operations   =         192
                      Number of ionic constraints     =           3
                      Point group of crystal =    32: Oh, m-3m, 4/m -3 2/m
                      Space group of crystal =   227: Fd-3m, F 4d 2 3 -1d
 
             Set iprint > 1 for details on symmetry rotations/translations
 
                         Centre of mass is constrained
             Set iprint > 1 for details of linear ionic constraints
 
                         Number of cell constraints= 5
                         Cell constraints are:  1 1 1 0 0 0
 
                         External pressure/stress (GPa)
                          0.00000   0.00000   0.00000
                                    0.00000   0.00000
                                              0.00000
 
+---------------- MEMORY AND SCRATCH DISK ESTIMATES PER PROCESS --------------+
|                                                     Memory          Disk    |
| Baseline code, static data and system overhead      148.0 MB         0.0 MB |
| BLAS internal memory storage                          0.0 MB         0.0 MB |
| Model and support data                             1439.6 MB         0.0 MB |
| Electronic energy minimisation requirements         311.4 MB         0.0 MB |
| Force calculation requirements                      133.3 MB         0.0 MB |
|                                               ----------------------------- |
| Approx. total storage required per process         1899.0 MB         0.0 MB |
|                                                                             |
| Requirements will fluctuate during execution and may exceed these estimates |
+-----------------------------------------------------------------------------+
Calculating approximate eigenstates for fixed initial Hamiltonian
Cut-off for approx. calculation is   89.988 eV
Improving approx. states at cut-off of  450.000 eV
Resetting cut-off to  900.000 eV
Improving states further at cut-off of  900.000 eV
Calculating total energy with cut-off of  900.000 eV.
------------------------------------------------------------------------ <-- SCF
SCF loop      Energy                           Energy gain       Timer   <-- SCF
                                               per atom          (sec)   <-- SCF
------------------------------------------------------------------------ <-- SCF
Initial  -1.35196807E+003                                         39.53  <-- SCF
      1  -1.35219276E+003                    2.80865542E-002      62.89  <-- SCF
      2  -1.35219286E+003                    1.20360985E-005      86.66  <-- SCF
      3  -1.35219286E+003                    1.16445069E-007     107.79  <-- SCF
      4  -1.35219286E+003                    6.82534805E-009     130.84  <-- SCF
------------------------------------------------------------------------ <-- SCF
 
Final energy =  -1352.192860418     eV
(energy not corrected for finite basis set)
 

Writing analysis data to Si_LDA_USP_without_DW.castep_bin

Writing model to Si_LDA_USP_without_DW.check
 
 ******************** Symmetrised Forces ********************
 *                                                          *
 *               Cartesian components (eV/A)                *
 * -------------------------------------------------------- *
 *                         x            y            z      *
 *                                                          *
 * Si              1      0.00000      0.00000     -0.00000 *
 * Si              2      0.00000     -0.00000     -0.00000 *
 * Si              3      0.00000     -0.00000     -0.00000 *
 * Si              4     -0.00000      0.00000     -0.00000 *
 * Si              5      0.00000      0.00000      0.00000 *
 * Si              6      0.00000      0.00000      0.00000 *
 * Si              7     -0.00000     -0.00000      0.00000 *
 * Si              8     -0.00000     -0.00000      0.00000 *
 *                                                          *
 ************************************************************
 
 Pseudo atomic calculation performed for Si 3s2 3p2
 
 Converged in 17 iterations to a total energy of -163.0651 eV
Charge spilling parameter for spin component 1 = 0.85%
 
            Orbital Populations       
     Ion    Atom   Orbital             Charge
  -------------------------------------------
     Si     1      S                    1.372
     Si     1      Px                   0.869
     Si     1      Py                   0.891
     Si     1      Pz                   0.868
     Si     2      S                    1.372
     Si     2      Px                   0.869
     Si     2      Py                   0.891
     Si     2      Pz                   0.868
     Si     3      S                    1.372
     Si     3      Px                   0.869
     Si     3      Py                   0.891
     Si     3      Pz                   0.868
     Si     4      S                    1.372
     Si     4      Px                   0.869
     Si     4      Py                   0.891
     Si     4      Pz                   0.868
     Si     5      S                    1.372
     Si     5      Px                   0.870
     Si     5      Py                   0.891
     Si     5      Pz                   0.868
     Si     6      S                    1.372
     Si     6      Px                   0.870
     Si     6      Py                   0.891
     Si     6      Pz                   0.868
     Si     7      S                    1.372
     Si     7      Px                   0.869
     Si     7      Py                   0.891
     Si     7      Pz                   0.868
     Si     8      S                    1.372
     Si     8      Px                   0.870
     Si     8      Py                   0.891
     Si     8      Pz                   0.868
  -------------------------------------------
                           Total:      32.000
  -------------------------------------------
 
     Atomic Populations (Mulliken)
     -----------------------------
Species          Ion     s       p       d       f      Total   Charge (e)
==========================================================================
  Si              1     1.372   2.628   0.000   0.000   4.000     0.000
  Si              2     1.372   2.628   0.000   0.000   4.000     0.000
  Si              3     1.372   2.628   0.000   0.000   4.000     0.000
  Si              4     1.372   2.628   0.000   0.000   4.000     0.000
  Si              5     1.372   2.628   0.000   0.000   4.000     0.000
  Si              6     1.372   2.628   0.000   0.000   4.000     0.000
  Si              7     1.372   2.628   0.000   0.000   4.000     0.000
  Si              8     1.372   2.628   0.000   0.000   4.000     0.000
==========================================================================
 
                 Bond                   Population      Length (A)
======================================================================
              Si 4 -- Si 8                   0.74        2.35156
              Si 4 -- Si 7                   0.74        2.35156
              Si 4 -- Si 6                   0.74        2.35156
              Si 4 -- Si 5                   0.74        2.35156
              Si 3 -- Si 8                   0.74        2.35156
              Si 3 -- Si 7                   0.74        2.35156
              Si 3 -- Si 6                   0.74        2.35156
              Si 3 -- Si 5                   0.74        2.35156
              Si 2 -- Si 8                   0.74        2.35156
              Si 2 -- Si 7                   0.74        2.35156
              Si 2 -- Si 6                   0.74        2.35156
              Si 2 -- Si 5                   0.74        2.35156
              Si 1 -- Si 8                   0.74        2.35156
              Si 1 -- Si 7                   0.74        2.35156
              Si 1 -- Si 6                   0.74        2.35156
              Si 1 -- Si 5                   0.74        2.35156
======================================================================
 

Writing analysis data to Si_LDA_USP_without_DW.castep_bin

Writing model to Si_LDA_USP_without_DW.check
 
 A BibTeX formatted list of references used in this run has been written to 
 Si_LDA_USP_without_DW.bib
 
Initialisation time =      7.33 s
Calculation time    =    134.82 s
Finalisation time   =    127.24 s
Total time          =    269.39 s
Peak Memory Use     = 38079916 kB
 
Overall parallel efficiency rating: Excellent (98%)
 
Data was distributed by:-
k-point (4-way); efficiency rating: Excellent (98%)
 
Parallel notes:
1) Calculation only took 142.2 s, so efficiency estimates may be inaccurate.
