 +-------------------------------------------------+
 |                                                 |
 |      CCC   AA    SSS  TTTTT  EEEEE  PPPP        |
 |     C     A  A  S       T    E      P   P       |
 |     C     AAAA   SS     T    EEE    PPPP        |
 |     C     A  A     S    T    E      P           |
 |      CCC  A  A  SSS     T    EEEEE  P           |
 |                                                 |
 +-------------------------------------------------+
 |                                                 |
 | Welcome to Academic Release CASTEP version 23.1 |
 | Ab Initio Total Energy Program                  |
 |                                                 |
 | Authors:                                        |
 | M. Segall, M. Probert, C. Pickard, P. Hasnip,   |
 | S. Clark, K. Refson, J. R. Yates, M. Payne      |
 |                                                 |
 | Contributors:                                   |
 | P. Lindan, P. Haynes, J. White, V. Milman,      |
 | N. Govind, M. Gibson, P. Tulip, V. Cocula,      |
 | B. Montanari, D. Quigley, M. Glover,            |
 | L. Bernasconi, A. Perlov, M. Plummer,           |
 | E. McNellis, J. Meyer, J. Gale, D. Jochym       |
 | J. Aarons, B. Walker, R. Gillen, D. Jones       |
 | T. Green, I. J. Bush, C. J. Armstrong,          |
 | E. J. Higgins, E. L. Brown, M. S. McFly,        |
 | J. Wilkins, B-C. Shih, P. J. P. Byrne,          |
 | R. J. Maurer, J. C. Womack, J. Dziedzic,        |
 | A. Bartok-Partay, L. LeBlanc, T. K. Stenczel,   |
 | J. Kermode, S. Sturniolo, B. Shi, B. Durham     |
 | M. Evans, M. J. Smith                           |
 |                                                 |
 | Copyright (c) 2000 - 2022                       |
 |                                                 |
 |     Distributed under license from Cambridge    |
 |     Enterprise for academic use only.           |
 |                                                 |
 | Please cite                                     |
 |                                                 |
 |     "First principles methods using CASTEP"     |
 |                                                 |
 |         Zeitschrift fuer Kristallographie       |
 |           220(5-6) pp. 567-570 (2005)           |
 |                                                 |
 | S. J. Clark, M. D. Segall, C. J. Pickard,       |
 | P. J. Hasnip, M. J. Probert, K. Refson,         |
 | M. C. Payne                                     |
 |                                                 |
 |       in all publications arising from          |
 |              your use of CASTEP                 |
 |                                                 |
 +-------------------------------------------------+
 |                                                 |
 |              http://www.castep.org              |
 |                                                 |
 +-------------------------------------------------+
 
 
 
 Compiled for linux_x86_64_ifort on Mon, 05 Sep 2022 11:08:02 +0100
 from code version e6e5b11da+  default  Sat Aug 27 10:35:58 2022 +0100
 Compiler: Intel Fortran 18.0.3.222; Optimisation: fast
 MATHLIBS: Intel MKL(2018.0.3) (LAPACK version 3.7.0)
 FFT Lib : default
 Fundamental constants values: CODATA 2018
 
 Run started: Tue, 13 Sep 2022 17:54:47 +0100
 
 Atomic calculation performed for O: 1s2 2s2 2p4
 
 Converged in 60 iterations to an ae energy of -2027.926 eV
 
   ============================================================                
   | Pseudopotential Report - Date of generation 13-09-2022   |                
   ------------------------------------------------------------                
   | Element: O Ionic charge:  6.00 Level of theory: LDA      |                
   | Atomic Solver: Koelling-Harmon                           |                
   |                                                          |                
   |               Reference Electronic Structure             |                
   |         Orbital         Occupation         Energy        |                
   |            2s              2.000           -0.873        |                
   |            2p              4.000           -0.338        |                
   |                                                          |                
   |                 Pseudopotential Definition               |                
   |        Beta     l      e      Rc     scheme   norm       |                
   |          1      0   -0.873   1.100     qc      0         |                
   |          2      0    0.250   1.100     qc      0         |                
   |          3      1   -0.338   1.100     qc      0         |                
   |          4      1    0.250   1.100     qc      0         |                
   |         loc     2    0.000   1.100     pn      0         |                
   |                                                          |                
   | Augmentation charge Rinner = 0.769                       |                
   | Partial core correction Rc = 0.769                       |                
   ------------------------------------------------------------                
   | "2|1.1|17|20|23|20:21(qc=8)"                             |                
   ------------------------------------------------------------                
   |      Author: Chris J. Pickard, Cambridge University      |                
   ============================================================                
 
 Atomic calculation performed for Mg: 1s2 2s2 2p6 3s2
 
 Converged in 47 iterations to an ae energy of -5427.408 eV
 
   ============================================================                
   | Pseudopotential Report - Date of generation 13-09-2022   |                
   ------------------------------------------------------------                
   | Element: Mg Ionic charge: 10.00 Level of theory: LDA     |                
   | Atomic Solver: Koelling-Harmon                           |                
   |                                                          |                
   |               Reference Electronic Structure             |                
   |         Orbital         Occupation         Energy        |                
   |            2s              2.000           -2.914        |                
   |            2p              6.000           -1.717        |                
   |            3s              2.000           -0.176        |                
   |                                                          |                
   |                 Pseudopotential Definition               |                
   |        Beta     l      e      Rc     scheme   norm       |                
   |          1      0   -2.914   1.804     qc      0         |                
   |          2      0   -0.176   1.804     qc      0         |                
   |          3      0    0.250   1.804     qc      0         |                
   |          4      1   -1.717   1.804     qc      0         |                
   |          5      1    0.250   1.804     qc      0         |                
   |          6      2    0.000   1.804     qc      0         |                
   |          7      2    0.250   1.804     qc      0         |                
   |         loc     3    0.000   1.804     pn      0         |                
   |                                                          |                
   | Augmentation charge Rinner = 1.261                       |                
   | Partial core correction Rc = 1.261                       |                
   ------------------------------------------------------------                
   | "3|1.8|7|8|9|20U:30:21:32"                               |                
   ------------------------------------------------------------                
   |      Author: Chris J. Pickard, Cambridge University      |                
   ============================================================                
 
 Pseudo atomic calculation performed for O 2s2 2p4
 
 Converged in 26 iterations to a total energy of -431.3947 eV
 
 Pseudo atomic calculation performed for Mg 2s2 2p6 3s2
 
 Converged in 22 iterations to a total energy of -1684.9280 eV
 Calculation parallelised over 4 processes.
 Data is distributed by k-point(4-way)

 ************************************ Title ************************************
 

 ***************************** General Parameters ******************************
  
 output verbosity                               : normal  (1)
 write checkpoint data to                       : MgO_LDA_USP_with_DW.check
 type of calculation                            : single point energy
 stress calculation                             : off
 density difference calculation                 : on
 electron localisation func (ELF) calculation   : off
 Hirshfeld analysis                             : off
 polarisation (Berry phase) analysis            : off
 molecular orbital projected DOS                : off
 deltaSCF calculation                           : off
 unlimited duration calculation
 timing information                             : on
 memory usage estimate                          : on
 write extra output files                       : on
 write final potential to formatted file        : off
 write final density to formatted file          : on
 write BibTeX reference list                    : on
 write OTFG pseudopotential files               : on
 write electrostatic potential file             : on
 write bands file                               : on
 checkpoint writing                             : both castep_bin and check files
  
 output         length unit                     : A
 output           mass unit                     : amu
 output           time unit                     : ps
 output         charge unit                     : e
 output           spin unit                     : hbar/2
 output         energy unit                     : eV
 output          force unit                     : eV/A
 output       velocity unit                     : A/ps
 output       pressure unit                     : GPa
 output     inv_length unit                     : 1/A
 output      frequency unit                     : cm-1
 output force constant unit                     : eV/A**2
 output         volume unit                     : A**3
 output   IR intensity unit                     : (D/A)**2/amu
 output         dipole unit                     : D
 output         efield unit                     : eV/A/e
 output        entropy unit                     : J/mol/K
 output    efield chi2 unit                     : pm/V
  
 wavefunctions paging                           : none
 random number generator seed                   :  175449210
 data distribution                              : optimal for this architecture
 optimization strategy                          : balance speed and memory

 *********************** Exchange-Correlation Parameters ***********************
  
 using functional                               : Local Density Approximation
 relativistic treatment                         : Koelling-Harmon
 DFT+D: Semi-empirical dispersion correction    : off

 ************************* Pseudopotential Parameters **************************
  
 pseudopotential representation                 : reciprocal space
 <beta|phi> representation                      : reciprocal space
 spin-orbit coupling                            : off

 **************************** Basis Set Parameters *****************************
  
 plane wave basis set cut-off                   :   900.0000   eV
 size of standard grid                          :     1.7500
 size of   fine   grid                          :     3.5000
 size of   fine   gmax                          :    53.7933   1/A
 largest prime factor in FFT                    :          5
 finite basis set correction                    : none

 **************************** Electronic Parameters ****************************
  
 number of  electrons                           :  64.00    
 net charge of system                           :  0.000    
 treating system as non-spin-polarized
 number of bands                                :         32

 ********************* Electronic Minimization Parameters **********************
  
 Method: Treating system as non-metallic,
         and number of  SD  steps               :          1
         and number of  CG  steps               :          4
  
 total energy / atom convergence tol.           : 0.1000E-05   eV
 max force / atom convergence tol.              : ignored
 convergence tolerance window                   :          3   cycles
 max. number of SCF cycles                      :        300
 periodic dipole correction                     : NONE

 *********************** Population Analysis Parameters ************************
  
 Population analysis with cutoff                :  3.000       A
 Population analysis output                     : summary and pdos components

 ******************************* Developer Code ********************************
  
 DW_FACTOR:
 Mg 0.305
 O 0.340
 :ENDDW_FACTOR
 CALCULATE_XRD_SF:
 0 0 0
 1 1 1
 0 0 2
 0 2 2
 1 1 3
 2 2 2
 0 0 4
 1 3 3
 0 2 4
 2 2 4
 3 3 3
 1 1 5
 0 4 4
 1 3 5
 2 4 4
 0 0 6
 0 2 6
 3 3 5
 2 2 6
 4 4 4
 1 5 5
 1 1 7
 0 4 6
 2 4 6
 3 5 5
 1 3 7
 0 0 8
 3 3 7
 4 4 6
 0 2 8
 0 6 6
 2 2 8
 1 5 7
 5 5 5
 2 6 6
 0 4 8
 3 5 7
 1 1 9
 2 4 8
 4 6 6
 1 3 9
 4 4 8
 1 7 7
 5 5 7
 3 3 9
 0 6 8
 0 0 10
 2 6 8
 0 2 10
 3 7 7
 1 5 9
 6 6 6
 2 2 10
 3 5 9
 4 6 8
 0 4 10
 2 4 10
 5 7 7
 1 1 11
 0 8 8
 1 7 9
 5 5 9
 1 3 11
 2 8 8
 4 4 10
 0 6 10
 6 6 8
 3 7 9
 3 3 11
 2 6 10
 4 8 8
 0 0 12
 1 5 11
 7 7 7
 0 2 12
 4 6 10
 2 2 12
 5 7 9
 3 5 11
 0 4 12
 1 9 9
 0 8 10
 6 8 8
 2 4 12
 2 8 10
 3 9 9
 1 7 11
 5 5 11
 1 1 13
 6 6 10
 4 4 12
 3 7 11
 7 7 9
 1 3 13
 4 8 10
 0 6 12
 2 6 12
 5 9 9
 3 3 13
 8 8 8
 :ENDCALCULATE_XRD_SF

 *******************************************************************************
  
 
                           -------------------------------
                                      Unit Cell
                           -------------------------------
        Real Lattice(A)                      Reciprocal Lattice(1/A)
     4.2112000     0.0000000     0.0000000        1.492017788   0.000000000   0.000000000
     0.0000000     4.2112000     0.0000000        0.000000000   1.492017788   0.000000000
     0.0000000     0.0000000     4.2112000        0.000000000   0.000000000   1.492017788
 
                       Lattice parameters(A)       Cell Angles
                    a =      4.211200          alpha =   90.000000
                    b =      4.211200          beta  =   90.000000
                    c =      4.211200          gamma =   90.000000
 
                       Current cell volume =            74.682286       A**3
                                   density =             2.158713   AMU/A**3
                                           =             3.584627     g/cm^3
 
                           -------------------------------
                                     Cell Contents
                           -------------------------------
                         Total number of ions in cell =    8
                      Total number of species in cell =    2
                        Max number of any one species =    4
 
            xxxxxxxxxxxxxxxxxxxxxxxxxxxxxxxxxxxxxxxxxxxxxxxxxxxxxxxxxxxx
            x  Element    Atom        Fractional coordinates of atoms  x
            x            Number           u          v          w      x
            x----------------------------------------------------------x
            x  O            1         0.000000   0.500000   0.000000   x 
            x  O            2         0.500000   0.000000   0.000000   x 
            x  O            3         0.000000   0.000000   0.500000   x 
            x  O            4         0.500000   0.500000   0.500000   x 
            x  Mg           1         0.000000   0.000000   0.000000   x 
            x  Mg           2         0.500000   0.500000   0.000000   x 
            x  Mg           3         0.500000   0.000000   0.500000   x 
            x  Mg           4         0.000000   0.500000   0.500000   x 
            xxxxxxxxxxxxxxxxxxxxxxxxxxxxxxxxxxxxxxxxxxxxxxxxxxxxxxxxxxxx
 
 
                         No user defined ionic velocities
 
                           -------------------------------
                                   Details of Species
                           -------------------------------
 
                               Mass of species in AMU
                                    O   15.9994000
                                    Mg   24.3050000
 
                          Electric Quadrupole Moment (Barn)
                                    O   -0.0255800 Isotope 17
                                    Mg    0.1994000 Isotope 25
 
                          Files used for pseudopotentials:
                                    O 2|1.1|17|20|23|20:21(qc=8)
                                    Mg 3|1.8|7|8|9|20U:30:21:32
 
                           -------------------------------
                              k-Points For BZ Sampling
                           -------------------------------
                       MP grid size for SCF calculation is 17 17 17
                            with an offset of   0.000  0.000  0.000
                       Number of kpoints used =           165
 
                           -------------------------------
                               Symmetry and Constraints
                           -------------------------------
 
                      Cell is a supercell containing 4 primitive cells
                      Maximum deviation from symmetry =  0.00000         ANG
 
                      Number of symmetry operations   =         192
                      Number of ionic constraints     =           3
                      Point group of crystal =    32: Oh, m-3m, 4/m -3 2/m
                      Space group of crystal =   225: Fm-3m, -F 4 2 3
 
             Set iprint > 1 for details on symmetry rotations/translations
 
                         Centre of mass is constrained
             Set iprint > 1 for details of linear ionic constraints
 
                         Number of cell constraints= 5
                         Cell constraints are:  1 1 1 0 0 0
 
                         External pressure/stress (GPa)
                          0.00000   0.00000   0.00000
                                    0.00000   0.00000
                                              0.00000
 
+---------------- MEMORY AND SCRATCH DISK ESTIMATES PER PROCESS --------------+
|                                                     Memory          Disk    |
| Baseline code, static data and system overhead      146.0 MB         0.0 MB |
| BLAS internal memory storage                          0.0 MB         0.0 MB |
| Model and support data                             1071.5 MB         0.0 MB |
| Electronic energy minimisation requirements         515.7 MB         0.0 MB |
| Force calculation requirements                       64.1 MB         0.0 MB |
|                                               ----------------------------- |
| Approx. total storage required per process         1733.2 MB         0.0 MB |
|                                                                             |
| Requirements will fluctuate during execution and may exceed these estimates |
+-----------------------------------------------------------------------------+
Calculating approximate eigenstates for fixed initial Hamiltonian
Cut-off for approx. calculation is   89.988 eV
Improving approx. states at cut-off of  450.000 eV
Resetting cut-off to  900.000 eV
Improving states further at cut-off of  900.000 eV
Calculating total energy with cut-off of  900.000 eV.
------------------------------------------------------------------------ <-- SCF
SCF loop      Energy                           Energy gain       Timer   <-- SCF
                                               per atom          (sec)   <-- SCF
------------------------------------------------------------------------ <-- SCF
Initial  -8.51323443E+003                                         40.42  <-- SCF
      1  -8.51943008E+003                    7.74456601E-001      63.73  <-- SCF
      2  -8.51943952E+003                    1.17965453E-003      87.50  <-- SCF
      3  -8.51943967E+003                    1.91686057E-005     109.24  <-- SCF
      4  -8.51943968E+003                    7.80975115E-007     131.81  <-- SCF
      5  -8.51943968E+003                    4.19311086E-008     153.74  <-- SCF
------------------------------------------------------------------------ <-- SCF
 
Final energy =  -8519.439677307     eV
(energy not corrected for finite basis set)
 

Writing analysis data to MgO_LDA_USP_with_DW.castep_bin

Writing model to MgO_LDA_USP_with_DW.check
 
 ******************** Symmetrised Forces ********************
 *                                                          *
 *               Cartesian components (eV/A)                *
 * -------------------------------------------------------- *
 *                         x            y            z      *
 *                                                          *
 * O               1      0.00000      0.00000      0.00000 *
 * O               2      0.00000      0.00000      0.00000 *
 * O               3      0.00000      0.00000      0.00000 *
 * O               4      0.00000      0.00000      0.00000 *
 * Mg              1      0.00000      0.00000      0.00000 *
 * Mg              2      0.00000      0.00000      0.00000 *
 * Mg              3      0.00000      0.00000      0.00000 *
 * Mg              4      0.00000      0.00000      0.00000 *
 *                                                          *
 ************************************************************
 
 Pseudo atomic calculation performed for O 2s2 2p4
 
 Converged in 26 iterations to a total energy of -431.3947 eV
 
 Pseudo atomic calculation performed for Mg 2s2 2p6 3s2
 
 Converged in 22 iterations to a total energy of -1684.9280 eV
Charge spilling parameter for spin component 1 = 0.24%
 
            Orbital Populations       
     Ion    Atom   Orbital             Charge
  -------------------------------------------
      O     1      S                    1.841
      O     1      Px                   1.713
      O     1      Py                   1.707
      O     1      Pz                   1.697
      O     2      S                    1.841
      O     2      Px                   1.713
      O     2      Py                   1.707
      O     2      Pz                   1.697
      O     3      S                    1.841
      O     3      Px                   1.713
      O     3      Py                   1.707
      O     3      Pz                   1.697
      O     4      S                    1.841
      O     4      Px                   1.713
      O     4      Py                   1.707
      O     4      Pz                   1.697
     Mg     1      S                    2.001
     Mg     1      Px                   2.001
     Mg     1      Py                   2.001
     Mg     1      Pz                   2.001
     Mg     1      S                    0.399
     Mg     1      Px                   0.202
     Mg     1      Py                   0.207
     Mg     1      Pz                   0.230
     Mg     2      S                    2.001
     Mg     2      Px                   2.001
     Mg     2      Py                   2.001
     Mg     2      Pz                   2.001
     Mg     2      S                    0.399
     Mg     2      Px                   0.202
     Mg     2      Py                   0.207
     Mg     2      Pz                   0.230
     Mg     3      S                    2.001
     Mg     3      Px                   2.001
     Mg     3      Py                   2.001
     Mg     3      Pz                   2.001
     Mg     3      S                    0.399
     Mg     3      Px                   0.202
     Mg     3      Py                   0.207
     Mg     3      Pz                   0.230
     Mg     4      S                    2.001
     Mg     4      Px                   2.001
     Mg     4      Py                   2.001
     Mg     4      Pz                   2.001
     Mg     4      S                    0.399
     Mg     4      Px                   0.202
     Mg     4      Py                   0.207
     Mg     4      Pz                   0.230
  -------------------------------------------
                           Total:      64.000
  -------------------------------------------
 
     Atomic Populations (Mulliken)
     -----------------------------
Species          Ion     s       p       d       f      Total   Charge (e)
==========================================================================
  O               1     1.841   5.117   0.000   0.000   6.958    -0.958
  O               2     1.841   5.117   0.000   0.000   6.958    -0.958
  O               3     1.841   5.117   0.000   0.000   6.958    -0.958
  O               4     1.841   5.117   0.000   0.000   6.958    -0.958
  Mg              1     2.400   6.642   0.000   0.000   9.042     0.958
  Mg              2     2.400   6.642   0.000   0.000   9.042     0.958
  Mg              3     2.400   6.642   0.000   0.000   9.042     0.958
  Mg              4     2.400   6.642   0.000   0.000   9.042     0.958
==========================================================================
 
                 Bond                   Population      Length (A)
======================================================================
               O 4 -- Mg 4                   0.63        2.10560
               O 4 -- Mg 3                   0.63        2.10560
               O 4 -- Mg 2                   0.63        2.10560
               O 3 -- Mg 4                   0.63        2.10560
               O 3 -- Mg 3                   0.63        2.10560
               O 3 -- Mg 1                   0.63        2.10560
               O 2 -- Mg 3                   0.63        2.10560
               O 2 -- Mg 2                   0.63        2.10560
               O 2 -- Mg 1                   0.63        2.10560
               O 1 -- Mg 4                   0.63        2.10560
               O 1 -- Mg 2                   0.63        2.10560
               O 1 -- Mg 1                   0.63        2.10560
              Mg 3 -- Mg 4                  -0.51        2.97777
              Mg 2 -- Mg 4                  -0.51        2.97777
              Mg 2 -- Mg 3                  -0.51        2.97777
              Mg 1 -- Mg 4                  -0.51        2.97777
              Mg 1 -- Mg 3                  -0.51        2.97777
              Mg 1 -- Mg 2                  -0.51        2.97777
               O 3 -- O 4                   -0.13        2.97777
               O 2 -- O 4                   -0.13        2.97777
               O 2 -- O 3                   -0.13        2.97777
               O 1 -- O 4                   -0.13        2.97777
               O 1 -- O 3                   -0.13        2.97777
               O 1 -- O 2                   -0.13        2.97777
======================================================================
 

Writing analysis data to MgO_LDA_USP_with_DW.castep_bin

Writing model to MgO_LDA_USP_with_DW.check
 
 A BibTeX formatted list of references used in this run has been written to 
 MgO_LDA_USP_with_DW.bib
 
Initialisation time =     10.37 s
Calculation time    =    152.67 s
Finalisation time   =    117.84 s
Total time          =    280.88 s
Peak Memory Use     = 39807288 kB
 
Overall parallel efficiency rating: Excellent (97%)
 
Data was distributed by:-
k-point (4-way); efficiency rating: Excellent (97%)
 
Parallel notes:
1) Calculation only took 163.1 s, so efficiency estimates may be inaccurate.
