
:LABEL1: Calculations in /home/shi/wien2k_calc/Final/MgO_PBE
:LABEL2: on kohn at Sat 26 Dec 14:09:08 GMT 2020
:LABEL3: using WIEN2k_19.1 (Release 25/6/2019) in /home/shi/WIEN2k/WIEN2k_19.2
:LABEL4: using the command: run_lapw -ec 0.00001 -NI
 Flat Integration
 New Mode for Coulomb Integral
 Consistent 3/8+Simpson combinations
 Extension of core to zero
 LDM version in phi
 Fifth-order quadrature in outwin


            ---------
:ITE001:  1. ITERATION
            ---------

:NATO :    2 INDEPENDENT AND    2 TOTAL ATOMS IN UNITCELL
       SUBSTANCE: MgO_convergence                                             

       LATTICE                      = F   
:POT  : POTENTIAL OPTION EX_PBE EC_PBE VX_PBE VC_PBE
:LAT  : LATTICE CONSTANTS=  7.95801  7.95801  7.95801    1.571    1.571    1.571
:VOL  : UNIT CELL VOLUME =     125.99528
       MODE OF CALCULATION IS       = RELA
       NON-SPINPOLARIZED CALCULATION
:IFFT  : FFT-parameters:   64   64   64 Factor: 2.00


   CONVERGENCE PARAMETER FOR PSEUDOCHARGE: NCON=  9
   MAXIMAL VALUE OF RMT(JATOM)*ABSK(NKK) : RK  =23.60520


:VKCOUL :  VK-COUL convergence: 0.568E-05
       ATOMNUMBER=  1 Mg1        VCOUL-ZERO =  0.22178E+00
       ATOMNUMBER=  2 O 1        VCOUL-ZERO =  0.39475E+00
:FIT001: LUSE= 13 SIGMA OF V-XC FIT FOR ATOM  1  0.9189271E-02
:FIT001: LUSE= 13 SIGMA OF V-XC FIT FOR ATOM  1  0.9189271E-02
:FIT002: LUSE= 13 SIGMA OF V-XC FIT FOR ATOM  2  0.5270254E-03
:FIT002: LUSE= 13 SIGMA OF V-XC FIT FOR ATOM  2  0.5270254E-03
:DEN  : DENSITY INTEGRAL  =          -267.10774849   (Ry)
       ELS_POTENTIAL_AT Z=0 and Z=0.5:  -1.98308  -1.98308
       ELS_POTENTIAL_AT Y=0 and Y=0.5:   0.00000   0.00000
:VZERO:v0,v0c,v0x  -3.04079  -1.98308  -1.05770 v5,v5c,v5x  -3.04079  -1.98308  -1.05770
:VZERY:v0,v0c,v0x  -0.77550   0.00000  -0.77550 v5,v5c,v5x  -0.77550   0.00000  -0.77550
:VZERX:v0,v0c,v0x  -0.77550   0.00000  -0.77550 v5,v5c,v5x  -0.77550   0.00000  -0.77550
:LMAX-WF:   10   Non-Spherical LMAX:   4

          ATOMIC SPHERE DEPENDENT PARAMETERS FOR ATOM  Mg1       
:e__0001: OVERALL ENERGY PARAMETER IS    0.3000
          OVERALL BASIS SET ON ATOM IS LAPW
:E0_0001: E( 0)=    0.3000
             APW+lo
:E0_0001: E( 0)=   -4.9363   E(BOTTOM)=   -5.000   E(TOP)=   -4.872  1  2   161
             LOCAL ORBITAL
:E1_0001: E( 1)=    0.3000
             APW+lo
:E1_0001: E( 1)=   -2.5100   E(BOTTOM)=   -2.626   E(TOP)=   -2.394  0  1   158
             LOCAL ORBITAL

          ATOMIC SPHERE DEPENDENT PARAMETERS FOR ATOM  O 1       
:e__0002: OVERALL ENERGY PARAMETER IS    0.3000
          OVERALL BASIS SET ON ATOM IS LAPW
:E0_0002: E( 0)=    0.7000
             APW+lo
:E0_0002: E( 0)=   -1.1352   E(BOTTOM)=   -1.719   E(TOP)=   -0.552  1  2   158
             LOCAL ORBITAL
:E1_0002: E( 1)=    0.3000
             APW+lo

       K=   0.00000   0.00000   0.00000            1
:RKM  : MATRIX SIZE   194LOs:  13  RKM= 8.84  WEIGHT= 1.00  PGR:    
       EIGENVALUES ARE:
:EIG00001:      -4.9225483   -2.4791512   -2.4791512   -2.4791512   -1.1689746
:EIG00006:       0.0747843    0.0747843    0.0747843    0.5534931    1.4191307
:EIG00011:       1.4191307    1.4191307    1.7026078    1.8398624    1.8398624
       ********************************************************

:KPT   :      NUMBER OF K-POINTS:    72
       Insulator, EF-inconsistency corrected
:GAP (global)   :  0.478709 Ry =     6.513 eV (accurate value if proper k-mesh)
         Bandranges (emin - emax) and occupancy:
:BAN00001:   1   -4.922548   -4.921485  2.00000000
:BAN00002:   2   -2.486943   -2.479151  2.00000000
:BAN00003:   3   -2.483258   -2.479151  2.00000000
:BAN00004:   4   -2.481989   -2.479151  2.00000000
:BAN00005:   5   -1.168975   -1.077255  2.00000000
:BAN00006:   6   -0.186865    0.074784  2.00000000
:BAN00007:   7   -0.092545    0.074784  2.00000000
:BAN00008:   8   -0.022010    0.074784  2.00000000
:BAN00009:   9    0.553493    1.047796  0.00000000
:BAN00010:  10    0.955706    1.419131  0.00000000
:BAN00011:  11    1.087961    1.482172  0.00000000
:BAN00012:  12    1.386268    1.616671  0.00000000
:BAN00013:  13    1.520018    1.865524  0.00000000
        Energy to separate low and high energystates:   -0.23687


:NOE  : NUMBER OF ELECTRONS          =   16.000

:FER  : F E R M I - ENERGY(TETRAH.M.)=   0.0747843283
:GMA  : POTENTIAL AND CHARGE CUT-OFF  12.00 Ry**.5

:POS001: ATOM    1 X,Y,Z = 0.00000 0.00000 0.00000  MULT= 1  ZZ= 12.000  Mg1       

       LMMAX  5
       LM=   0 0  4 0  4 4  6 0  6 4

:CHA001: TOTAL VALENCE CHARGE INSIDE SPHERE   1 =   8.2690    (RMT=  1.9800 )
:PCS001: PARTIAL CHARGES SPHERE =  1 S,P,D,F,      D-EG,D-T2G 
:QTL001: 2.0973 6.0856 0.0685 0.0140 0.0000 0.0000 0.0000 0.0516 0.0169 0.0000 0.0000 0.0000
        Q-s-low E-s-low   Q-p-low E-p-low   Q-d-low E-d-low   Q-f-low E-f-low
:EPL001:  2.0068 -4.8984    5.9671 -2.4772    0.0082 -1.0897    0.0020 -1.1008
        Q-s-hi  E-s-hi    Q-p-hi  E-p-hi    Q-d-hi  E-d-hi    Q-f-hi  E-f-hi 
:EPH001:  0.0905 -0.1100    0.1185 -0.0507    0.0603 -0.0170    0.0120 -0.0028

:POS002: ATOM    2 X,Y,Z = 0.50000 0.00000 0.00000  MULT= 1  ZZ=  8.000  O 1       

       LMMAX  5
       LM=   0 0  4 0  4 4  6 0  6 4

:CHA002: TOTAL VALENCE CHARGE INSIDE SPHERE   2 =   6.6285    (RMT=  1.9800 )
:PCS002: PARTIAL CHARGES SPHERE =  2 S,P,D,F,      D-EG,D-T2G 
:QTL002: 1.8259 4.7924 0.0076 0.0019 0.0000 0.0000 0.0000 0.0033 0.0043 0.0000 0.0000 0.0000
        Q-s-low E-s-low   Q-p-low E-p-low   Q-d-low E-d-low   Q-f-low E-f-low
:EPL002:  1.8075 -1.1010    0.0058 -2.3055    0.0024 -2.5764    0.0011 -2.6624
        Q-s-hi  E-s-hi    Q-p-hi  E-p-hi    Q-d-hi  E-d-hi    Q-f-hi  E-f-hi 
:EPH002:  0.0184 -0.0858    4.7867 -0.0273    0.0052 -0.0421    0.0008 -0.0152

:CHA  : TOTAL VALENCE CHARGE INSIDE UNIT CELL =      16.000000

:SUM  : SUM OF EIGENVALUES =         -27.135082944



   QTL-B VALUE .EQ.    3.25434   in Band of energy   -0.18687   ATOM=    2   L=  1
    Most likely no ghostbands, but adjust Energy-parameters for this ATOM and L


:WARN : QTL-B value eq.   3.25 in Band of energy  -0.18687  ATOM=    2  L=  1
:WARN : You should change the E-parameter for this atom and L-value in case.in1 (or try the -in1new switch)

        1.ATOM      Mg1                   1 CORE STATES
:1S 001: 1S                 -91.615402272 Ry

        2.ATOM      O 1                   1 CORE STATES
:1S 002: 1S                 -37.029172614 Ry
:CINT001 Core Integral Atom   1    2.000000
:CINT002 Core Integral Atom   2    2.000000

       DENSITY AT NUCLEUS
        JATOM        VALENCE       SEMI-CORE          CORE           TOTAL
:RTO001:   1       70.142599        0.000000     1081.869029     1152.011628
:RTO002:   2       15.708386        0.000000      303.976238      319.684624
     
       CHARGES OF NEW CHARGE DENSITY
:NTO   : INTERSTITIAL CHARGE =     1.102400
:NPC   : PW Pseudocharge     =     5.324289
:NTO001: CHARGE SPHERE  1    =    10.269050
:NTO002: CHARGE SPHERE  2    =     8.628545

:NEC01: NUCLEAR AND ELECTRONIC CHARGE     20.00000    19.99999
     
       CHARGES OF OLD CHARGE DENSITY
:OTO   : INTERSTITIAL CHARGE =     1.619981
:OPC   : PW Pseudocharge     =     4.166996
:OTO001: CHARGE SPHERE  1    =    10.586943
:OTO002: CHARGE SPHERE  2    =     7.793213

:NEC02: NUCLEAR AND ELECTRONIC CHARGE     20.00000    20.00014
     
       CONVERGENCE TEST
:DTO001: DIFFERENCE IN SPHERE  1 =  0.2406973
:DTO002: DIFFERENCE IN SPHERE  2 =  0.8553263

:DIS  :  CHARGE DISTANCE       ( 0.8553263 for atom    2 spin 1)      0.5480118
 PW Mixed is           65
 
******************************************************
* MULTISECANT MIXING VER9 RELEASE 10.4.0              *
* Standard Mode with controls                        *
* Fixed density scale                                *
* Regularization       1.000E-04                     *
* Trust Upper Limit    5.000E+00                     *
* Max Number of Memory Steps    8                    *
******************************************************
 
:PWTMP   6.0965E+01  1.2800E+02  1.2600E+02
:PLANE:  PW TOTAL      1.5773 DISTAN   7.87E-01  4.99E+01 %
:CHARG:  CLM/ATOM     35.3651 DISTAN   4.46E-01  1.26E+00 %
 
Step History
        DMIX         DMIXT        Red     Pred      Trust     Lambda    MagRel    MagAbs     Beta
  1   3.5000E-02   3.5000E-02 -1.00E+00  1.00E+00 -1.00E+01  1.00E+00  3.50E-02  3.50E-02  1.00E+00
:INFO :  Note, Pratt in use
:TRUST:  Step 5.25E-02  Charge 7.50E-02 (e) CTO  2.50E-01 (e) PW  3.50E-01 (e)
:DIRM :  MEMORY  0/ 8 SCALE   1.000
Performing Pseudo Compensation
Final Pseudo Compensation Rescaling     9.99813E-01
:MIX  :   PRATT  REGULARIZATION:  1.00E-04 GREED: 0.03500                  
     
       CHARGES OF MIXED CHARGE DENSITY
:CTO   : INTERSTITIAL CHARGE =     1.601733
:CPC   : PW Pseudocharge     =     5.086292
:CTO001: CHARGE SPHERE  1    =    10.575817
:CTO002: CHARGE SPHERE  2    =     7.822450

:NEC03: NUCLEAR AND ELECTRONIC CHARGE     20.00000    20.00000

PW CHANGE     H    K    L      Current       Change    Residue
:PTO001:      0    0    0  5.30815553E-02  7.155E-03  5.081E-03
:PTO002:     -1   -1   -1 -8.51464590E-02 -2.572E-02 -3.812E-02
:PTO003:      0    0   -2  8.86531239E-02  3.033E-02  4.735E-02
:PTO004:      0   -2   -2  7.61473517E-02  3.955E-02  4.604E-02
:PTO005:     -1   -1   -3 -2.98014165E-02 -2.389E-02 -1.433E-02
:PTO006:     -2   -2   -2  2.23421625E-02  1.646E-02  1.449E-02
:PTO007:      0    0   -4  6.80538180E-03  7.240E-03  5.757E-03
:PTO008:     -1   -3   -3  5.70317201E-03 -5.481E-03 -3.297E-03
:PTO009:      0   -2   -4  8.19247928E-03  1.492E-02  6.590E-03
:PTO010:     -2   -2   -4 -4.94807710E-04  5.786E-03 -1.696E-03
:PTO011:     -3   -3   -3  2.20865358E-03 -4.566E-05 -2.657E-06
:PTO012:     -1   -1   -5  6.60277239E-03 -1.602E-04 -6.705E-04

:ENE  : *WARNING** TOTAL ENERGY IN Ry =         -551.53198121

 Flat Integration
 New Mode for Coulomb Integral
 Consistent 3/8+Simpson combinations
 Extension of core to zero
 LDM version in phi
 Fifth-order quadrature in outwin


            ---------
:ITE002:  2. ITERATION
            ---------

:NATO :    2 INDEPENDENT AND    2 TOTAL ATOMS IN UNITCELL
       SUBSTANCE: MgO_convergence                                             

       LATTICE                      = F   
:POT  : POTENTIAL OPTION EX_PBE EC_PBE VX_PBE VC_PBE
:LAT  : LATTICE CONSTANTS=  7.95801  7.95801  7.95801    1.571    1.571    1.571
:VOL  : UNIT CELL VOLUME =     125.99528
       MODE OF CALCULATION IS       = RELA
       NON-SPINPOLARIZED CALCULATION
:IFFT  : FFT-parameters:   64   64   64 Factor: 2.00


   CONVERGENCE PARAMETER FOR PSEUDOCHARGE: NCON=  9
   MAXIMAL VALUE OF RMT(JATOM)*ABSK(NKK) : RK  =23.60520


:VKCOUL :  VK-COUL convergence: 0.105E-05
       ATOMNUMBER=  1 Mg1        VCOUL-ZERO =  0.22903E+00
       ATOMNUMBER=  2 O 1        VCOUL-ZERO =  0.40766E+00
:FIT001: LUSE= 13 SIGMA OF V-XC FIT FOR ATOM  1  0.9487047E-02
:FIT001: LUSE= 13 SIGMA OF V-XC FIT FOR ATOM  1  0.9487047E-02
:FIT002: LUSE= 13 SIGMA OF V-XC FIT FOR ATOM  2  0.4907052E-03
:FIT002: LUSE= 13 SIGMA OF V-XC FIT FOR ATOM  2  0.4907052E-03
:DEN  : DENSITY INTEGRAL  =          -267.43315744   (Ry)
       ELS_POTENTIAL_AT Z=0 and Z=0.5:  -2.06095  -2.06095
       ELS_POTENTIAL_AT Y=0 and Y=0.5:   0.00000   0.00000
:VZERO:v0,v0c,v0x  -3.22073  -2.06095  -1.15978 v5,v5c,v5x  -3.22073  -2.06095  -1.15978
:VZERY:v0,v0c,v0x  -0.78713   0.00000  -0.78713 v5,v5c,v5x  -0.78713   0.00000  -0.78713
:VZERX:v0,v0c,v0x  -0.78713   0.00000  -0.78713 v5,v5c,v5x  -0.78713   0.00000  -0.78713
:LMAX-WF:   10   Non-Spherical LMAX:   4

          ATOMIC SPHERE DEPENDENT PARAMETERS FOR ATOM  Mg1       
:e__0001: OVERALL ENERGY PARAMETER IS    0.1000
          OVERALL BASIS SET ON ATOM IS LAPW
:E0_0001: E( 0)=    0.1000
             APW+lo
:E0_0001: E( 0)=   -4.9338   E(BOTTOM)=   -4.998   E(TOP)=   -4.870  1  2   160
             LOCAL ORBITAL
:E1_0001: E( 1)=    0.1000
             APW+lo
:E1_0001: E( 1)=   -2.5075   E(BOTTOM)=   -2.623   E(TOP)=   -2.392  0  1   160
             LOCAL ORBITAL

          ATOMIC SPHERE DEPENDENT PARAMETERS FOR ATOM  O 1       
:e__0002: OVERALL ENERGY PARAMETER IS    0.1000
          OVERALL BASIS SET ON ATOM IS LAPW
:E0_0002: E( 0)=    0.5000
             APW+lo
:E0_0002: E( 0)=   -1.1046   E(BOTTOM)=   -1.692   E(TOP)=   -0.517  1  2   159
             LOCAL ORBITAL
:E1_0002: E( 1)=    0.1000
             APW+lo

       K=   0.00000   0.00000   0.00000            1
:RKM  : MATRIX SIZE   194LOs:  13  RKM= 8.84  WEIGHT= 1.00  PGR:    
       EIGENVALUES ARE:
:EIG00001:      -4.9201118   -2.4767686   -2.4767686   -2.4767686   -1.1415071
:EIG00006:       0.1049004    0.1049004    0.1049004    0.5692275    1.4309086
:EIG00011:       1.4309086    1.4309086    1.7129770
       ********************************************************

:KPT   :      NUMBER OF K-POINTS:    72
       Insulator, EF-inconsistency corrected
:GAP (global)   :  0.464327 Ry =     6.317 eV (accurate value if proper k-mesh)
         Bandranges (emin - emax) and occupancy:
:BAN00001:   1   -4.920112   -4.919081  2.00000000
:BAN00002:   2   -2.484393   -2.476769  2.00000000
:BAN00003:   3   -2.480916   -2.476769  2.00000000
:BAN00004:   4   -2.479516   -2.476769  2.00000000
:BAN00005:   5   -1.141507   -1.047534  2.00000000
:BAN00006:   6   -0.164281    0.104900  2.00000000
:BAN00007:   7   -0.067701    0.104900  2.00000000
:BAN00008:   8    0.005172    0.104900  2.00000000
:BAN00009:   9    0.569228    1.066900  0.00000000
:BAN00010:  10    0.971769    1.430909  0.00000000
:BAN00011:  11    1.110112    1.494428  0.00000000
:BAN00012:  12    1.399242    1.639379  0.00000000
:BAN00013:  13    1.536962    1.795524  0.00000000
        Energy to separate low and high energystates:   -0.21428


:NOE  : NUMBER OF ELECTRONS          =   16.000

:FER  : F E R M I - ENERGY(TETRAH.M.)=   0.1049004039
:GMA  : POTENTIAL AND CHARGE CUT-OFF  12.00 Ry**.5

:POS001: ATOM    1 X,Y,Z = 0.00000 0.00000 0.00000  MULT= 1  ZZ= 12.000  Mg1       

       LMMAX  5
       LM=   0 0  4 0  4 4  6 0  6 4

:CHA001: TOTAL VALENCE CHARGE INSIDE SPHERE   1 =   8.2788    (RMT=  1.9800 )
:PCS001: PARTIAL CHARGES SPHERE =  1 S,P,D,F,      D-EG,D-T2G 
:QTL001: 2.1008 6.0898 0.0703 0.0142 0.0000 0.0000 0.0000 0.0527 0.0175 0.0000 0.0000 0.0000
        Q-s-low E-s-low   Q-p-low E-p-low   Q-d-low E-d-low   Q-f-low E-f-low
:EPL001:  2.0072 -4.8951    5.9678 -2.4746    0.0083 -1.0603    0.0020 -1.0716
        Q-s-hi  E-s-hi    Q-p-hi  E-p-hi    Q-d-hi  E-d-hi    Q-f-hi  E-f-hi 
:EPH001:  0.0936 -0.0852    0.1221 -0.0243    0.0620  0.0103    0.0122  0.0250

:POS002: ATOM    2 X,Y,Z = 0.50000 0.00000 0.00000  MULT= 1  ZZ=  8.000  O 1       

       LMMAX  5
       LM=   0 0  4 0  4 4  6 0  6 4

:CHA002: TOTAL VALENCE CHARGE INSIDE SPHERE   2 =   6.5935    (RMT=  1.9800 )
:PCS002: PARTIAL CHARGES SPHERE =  2 S,P,D,F,      D-EG,D-T2G 
:QTL002: 1.8231 4.7598 0.0078 0.0019 0.0000 0.0000 0.0000 0.0033 0.0045 0.0000 0.0000 0.0000
        Q-s-low E-s-low   Q-p-low E-p-low   Q-d-low E-d-low   Q-f-low E-f-low
:EPL002:  1.8036 -1.0718    0.0057 -2.2778    0.0023 -2.5655    0.0011 -2.6566
        Q-s-hi  E-s-hi    Q-p-hi  E-p-hi    Q-d-hi  E-d-hi    Q-f-hi  E-f-hi 
:EPH002:  0.0195 -0.0604    4.7541 -0.0001    0.0055 -0.0153    0.0009  0.0123

:CHA  : TOTAL VALENCE CHARGE INSIDE UNIT CELL =      16.000000

:SUM  : SUM OF EIGENVALUES =         -26.896680535


        1.ATOM      Mg1                   1 CORE STATES
:1S 001: 1S                 -91.615478179 Ry

        2.ATOM      O 1                   1 CORE STATES
:1S 002: 1S                 -36.976981532 Ry
:CINT001 Core Integral Atom   1    2.000000
:CINT002 Core Integral Atom   2    2.000000

       DENSITY AT NUCLEUS
        JATOM        VALENCE       SEMI-CORE          CORE           TOTAL
:RTO001:   1       70.203559        0.000000     1081.876398     1152.079958
:RTO002:   2       15.610441        0.000000      303.960335      319.570775
     
       CHARGES OF NEW CHARGE DENSITY
:NTO   : INTERSTITIAL CHARGE =     1.127778
:NPC   : PW Pseudocharge     =     5.340011
:NTO001: CHARGE SPHERE  1    =    10.278751
:NTO002: CHARGE SPHERE  2    =     8.593467

:NEC01: NUCLEAR AND ELECTRONIC CHARGE     20.00000    19.99999
     
       CHARGES OF OLD CHARGE DENSITY
:OTO   : INTERSTITIAL CHARGE =     1.601733
:OPC   : PW Pseudocharge     =     5.086292
:OTO001: CHARGE SPHERE  1    =    10.575817
:OTO002: CHARGE SPHERE  2    =     7.822450

:NEC02: NUCLEAR AND ELECTRONIC CHARGE     20.00000    20.00000
     
       CONVERGENCE TEST
:DTO001: DIFFERENCE IN SPHERE  1 =  0.2235220
:DTO002: DIFFERENCE IN SPHERE  2 =  0.7878152

:DIS  :  CHARGE DISTANCE       ( 0.7878152 for atom    2 spin 1)      0.5056686
 PW Mixed is           65
 
******************************************************
* MULTISECANT MIXING VER9 RELEASE 10.4.0              *
* Standard Mode with controls                        *
* Fixed density scale                                *
* Regularization       1.000E-04                     *
* Trust Upper Limit    5.000E+00                     *
* Max Number of Memory Steps    8                    *
******************************************************
 
:PWTMP   6.0965E+01  1.2800E+02  1.2600E+02
:PLANE:  PW TOTAL      2.0779 DISTAN   2.52E-01  1.21E+01 %
:CHARG:  CLM/ATOM     35.3644 DISTAN   4.11E-01  1.16E+00 %
 
Step History
        DMIX         DMIXT        Red     Pred      Trust     Lambda    MagRel    MagAbs     Beta
  1   3.5000E-02   3.5000E-02 -1.00E+00  1.00E+00 -1.00E+01  1.00E+00  3.50E-02  3.50E-02  1.00E+00
  2   3.5000E-02   3.5000E-02 -1.00E+00  1.00E+00 -1.00E+01  1.00E+00  3.50E-02  4.16E-02  1.00E+00
:JACOBIANS    4.912E-01   2.808E-03
  
:TRUST:  Step 4.29E-02  Charge 7.50E-02 (e) CTO  2.50E-01 (e) PW  3.50E-01 (e)
:DIRM :  MEMORY  1/ 8 SCALE   1.000
:MIX  :   PRATT  REGULARIZATION:  1.00E-04 GREED: 0.04288  Expand 1.23  0.0429                
     
       CHARGES OF MIXED CHARGE DENSITY
:CTO   : INTERSTITIAL CHARGE =     1.595221
:CPC   : PW Pseudocharge     =     5.416999
:CTO001: CHARGE SPHERE  1    =    10.571816
:CTO002: CHARGE SPHERE  2    =     7.832963

:NEC03: NUCLEAR AND ELECTRONIC CHARGE     20.00000    20.00000

PW CHANGE     H    K    L      Current       Change    Residue
:PTO001:      0    0    0  5.56546259E-02  2.573E-03 -1.748E-03
:PTO002:     -1   -1   -1 -9.43960508E-02 -9.250E-03 -1.246E-02
:PTO003:      0    0   -2  9.95593941E-02  1.091E-02  1.669E-02
:PTO004:      0   -2   -2  9.03678277E-02  1.422E-02  5.906E-03
:PTO005:     -1   -1   -3 -3.83911214E-02 -8.590E-03  9.984E-03
:PTO006:     -2   -2   -2  2.82619147E-02  5.920E-03 -2.181E-03
:PTO007:      0    0   -4  9.40880064E-03  2.603E-03 -1.532E-03
:PTO008:     -1   -3   -3  3.73222861E-03 -1.971E-03  2.294E-03
:PTO009:      0   -2   -4  1.35577474E-02  5.365E-03 -8.384E-03
:PTO010:     -2   -2   -4  1.58574781E-03  2.081E-03 -7.467E-03
:PTO011:     -3   -3   -3  2.19223522E-03 -1.642E-05  4.472E-05
:PTO012:     -1   -1   -5  6.54517875E-03 -5.759E-05 -5.201E-04

:ENE  : ********** TOTAL ENERGY IN Ry =         -551.51475740

 Flat Integration
 New Mode for Coulomb Integral
 Consistent 3/8+Simpson combinations
 Extension of core to zero
 LDM version in phi
 Fifth-order quadrature in outwin


            ---------
:ITE003:  3. ITERATION
            ---------

:NATO :    2 INDEPENDENT AND    2 TOTAL ATOMS IN UNITCELL
       SUBSTANCE: MgO_convergence                                             

       LATTICE                      = F   
:POT  : POTENTIAL OPTION EX_PBE EC_PBE VX_PBE VC_PBE
:LAT  : LATTICE CONSTANTS=  7.95801  7.95801  7.95801    1.571    1.571    1.571
:VOL  : UNIT CELL VOLUME =     125.99528
       MODE OF CALCULATION IS       = RELA
       NON-SPINPOLARIZED CALCULATION
:IFFT  : FFT-parameters:   64   64   64 Factor: 2.00


   CONVERGENCE PARAMETER FOR PSEUDOCHARGE: NCON=  9
   MAXIMAL VALUE OF RMT(JATOM)*ABSK(NKK) : RK  =23.60520


:VKCOUL :  VK-COUL convergence: 0.113E-05
       ATOMNUMBER=  1 Mg1        VCOUL-ZERO =  0.23165E+00
       ATOMNUMBER=  2 O 1        VCOUL-ZERO =  0.41231E+00
:FIT001: LUSE= 13 SIGMA OF V-XC FIT FOR ATOM  1  0.9594740E-02
:FIT001: LUSE= 13 SIGMA OF V-XC FIT FOR ATOM  1  0.9594740E-02
:FIT002: LUSE= 13 SIGMA OF V-XC FIT FOR ATOM  2  0.4773497E-03
:FIT002: LUSE= 13 SIGMA OF V-XC FIT FOR ATOM  2  0.4773497E-03
:DEN  : DENSITY INTEGRAL  =          -267.55070284   (Ry)
       ELS_POTENTIAL_AT Z=0 and Z=0.5:  -2.08901  -2.08901
       ELS_POTENTIAL_AT Y=0 and Y=0.5:   0.00000   0.00000
:VZERO:v0,v0c,v0x  -3.27853  -2.08901  -1.18951 v5,v5c,v5x  -3.27853  -2.08901  -1.18951
:VZERY:v0,v0c,v0x  -0.79000   0.00000  -0.79000 v5,v5c,v5x  -0.79000   0.00000  -0.79000
:VZERX:v0,v0c,v0x  -0.79000   0.00000  -0.79000 v5,v5c,v5x  -0.79000   0.00000  -0.79000
:LMAX-WF:   10   Non-Spherical LMAX:   4

          ATOMIC SPHERE DEPENDENT PARAMETERS FOR ATOM  Mg1       
:e__0001: OVERALL ENERGY PARAMETER IS   -0.0301
          OVERALL BASIS SET ON ATOM IS LAPW
:E0_0001: E( 0)=   -0.0301
             APW+lo
:E0_0001: E( 0)=   -4.9329   E(BOTTOM)=   -4.997   E(TOP)=   -4.869  1  2   158
             LOCAL ORBITAL
:E1_0001: E( 1)=   -0.0301
             APW+lo
:E1_0001: E( 1)=   -2.5065   E(BOTTOM)=   -2.622   E(TOP)=   -2.391  0  1   161
             LOCAL ORBITAL

          ATOMIC SPHERE DEPENDENT PARAMETERS FOR ATOM  O 1       
:e__0002: OVERALL ENERGY PARAMETER IS   -0.0301
          OVERALL BASIS SET ON ATOM IS LAPW
:E0_0002: E( 0)=    0.3699
             APW+lo
:E0_0002: E( 0)=   -1.0937   E(BOTTOM)=   -1.683   E(TOP)=   -0.505  1  2   161
             LOCAL ORBITAL
:E1_0002: E( 1)=   -0.0301
             APW+lo

       K=   0.00000   0.00000   0.00000            1
:RKM  : MATRIX SIZE   194LOs:  13  RKM= 8.84  WEIGHT= 1.00  PGR:    
       EIGENVALUES ARE:
:EIG00001:      -4.9192254   -2.4759064   -2.4759064   -2.4759064   -1.1316395
:EIG00006:       0.1157397    0.1157397    0.1157397    0.5749763    1.4353367
:EIG00011:       1.4353367    1.4353367
       ********************************************************

:KPT   :      NUMBER OF K-POINTS:    72
       Insulator, EF-inconsistency corrected
:GAP (global)   :  0.459237 Ry =     6.248 eV (accurate value if proper k-mesh)
         Bandranges (emin - emax) and occupancy:
:BAN00001:   1   -4.919225   -4.918210  2.00000000
:BAN00002:   2   -2.483466   -2.475906  2.00000000
:BAN00003:   3   -2.480076   -2.475906  2.00000000
:BAN00004:   4   -2.478616   -2.475906  2.00000000
:BAN00005:   5   -1.131640   -1.036848  2.00000000
:BAN00006:   6   -0.156050    0.115740  2.00000000
:BAN00007:   7   -0.058713    0.115740  2.00000000
:BAN00008:   8    0.014970    0.115740  2.00000000
:BAN00009:   9    0.574976    1.075136  0.00000000
:BAN00010:  10    0.978088    1.435337  0.00000000
:BAN00011:  11    1.120064    1.499182  0.00000000
:BAN00012:  12    1.404041    1.650715  0.00000000
:BAN00013:  13    1.544563    1.665940  0.00000000
        Energy to separate low and high energystates:   -0.20605


:NOE  : NUMBER OF ELECTRONS          =   16.000

:FER  : F E R M I - ENERGY(TETRAH.M.)=   0.1157396777
:GMA  : POTENTIAL AND CHARGE CUT-OFF  12.00 Ry**.5

:POS001: ATOM    1 X,Y,Z = 0.00000 0.00000 0.00000  MULT= 1  ZZ= 12.000  Mg1       

       LMMAX  5
       LM=   0 0  4 0  4 4  6 0  6 4

:CHA001: TOTAL VALENCE CHARGE INSIDE SPHERE   1 =   8.2822    (RMT=  1.9800 )
:PCS001: PARTIAL CHARGES SPHERE =  1 S,P,D,F,      D-EG,D-T2G 
:QTL001: 2.1020 6.0913 0.0709 0.0143 0.0000 0.0000 0.0000 0.0531 0.0178 0.0000 0.0000 0.0000
        Q-s-low E-s-low   Q-p-low E-p-low   Q-d-low E-d-low   Q-f-low E-f-low
:EPL001:  2.0074 -4.8939    5.9680 -2.4737    0.0083 -1.0497    0.0020 -1.0612
        Q-s-hi  E-s-hi    Q-p-hi  E-p-hi    Q-d-hi  E-d-hi    Q-f-hi  E-f-hi 
:EPH001:  0.0946 -0.0762    0.1233 -0.0148    0.0625  0.0202    0.0123  0.0350

:POS002: ATOM    2 X,Y,Z = 0.50000 0.00000 0.00000  MULT= 1  ZZ=  8.000  O 1       

       LMMAX  5
       LM=   0 0  4 0  4 4  6 0  6 4

:CHA002: TOTAL VALENCE CHARGE INSIDE SPHERE   2 =   6.5813    (RMT=  1.9800 )
:PCS002: PARTIAL CHARGES SPHERE =  2 S,P,D,F,      D-EG,D-T2G 
:QTL002: 1.8221 4.7484 0.0079 0.0020 0.0000 0.0000 0.0000 0.0033 0.0046 0.0000 0.0000 0.0000
        Q-s-low E-s-low   Q-p-low E-p-low   Q-d-low E-d-low   Q-f-low E-f-low
:EPL002:  1.8022 -1.0614    0.0056 -2.2666    0.0023 -2.5613    0.0011 -2.6543
        Q-s-hi  E-s-hi    Q-p-hi  E-p-hi    Q-d-hi  E-d-hi    Q-f-hi  E-f-hi 
:EPH002:  0.0199 -0.0512    4.7428  0.0098    0.0056 -0.0057    0.0009  0.0222

:CHA  : TOTAL VALENCE CHARGE INSIDE UNIT CELL =      16.000000

:SUM  : SUM OF EIGENVALUES =         -26.810706343


        1.ATOM      Mg1                   1 CORE STATES
:1S 001: 1S                 -91.615494758 Ry

        2.ATOM      O 1                   1 CORE STATES
:1S 002: 1S                 -36.958206427 Ry
:CINT001 Core Integral Atom   1    2.000000
:CINT002 Core Integral Atom   2    2.000000

       DENSITY AT NUCLEUS
        JATOM        VALENCE       SEMI-CORE          CORE           TOTAL
:RTO001:   1       70.226955        0.000000     1081.879048     1152.106003
:RTO002:   2       15.575342        0.000000      303.954616      319.529958
     
       CHARGES OF NEW CHARGE DENSITY
:NTO   : INTERSTITIAL CHARGE =     1.136551
:NPC   : PW Pseudocharge     =     5.344155
:NTO001: CHARGE SPHERE  1    =    10.282168
:NTO002: CHARGE SPHERE  2    =     8.581275

:NEC01: NUCLEAR AND ELECTRONIC CHARGE     20.00000    19.99999
     
       CHARGES OF OLD CHARGE DENSITY
:OTO   : INTERSTITIAL CHARGE =     1.595221
:OPC   : PW Pseudocharge     =     5.416999
:OTO001: CHARGE SPHERE  1    =    10.571816
:OTO002: CHARGE SPHERE  2    =     7.832963

:NEC02: NUCLEAR AND ELECTRONIC CHARGE     20.00000    20.00000
     
       CONVERGENCE TEST
:DTO001: DIFFERENCE IN SPHERE  1 =  0.2173901
:DTO002: DIFFERENCE IN SPHERE  2 =  0.7572138

:DIS  :  CHARGE DISTANCE       ( 0.7572138 for atom    2 spin 1)      0.4873020
 PW Mixed is           65
 
******************************************************
* MULTISECANT MIXING VER9 RELEASE 10.4.0              *
* Standard Mode with controls                        *
* Fixed density scale                                *
* Regularization       1.000E-04                     *
* Trust Upper Limit    5.000E+00                     *
* Max Number of Memory Steps    8                    *
******************************************************
 
:PWTMP   6.0965E+01  1.2800E+02  1.2600E+02
:PLANE:  PW TOTAL      2.2724 DISTAN   2.31E-01  1.02E+01 %
:CHARG:  CLM/ATOM     35.3641 DISTAN   3.95E-01  1.12E+00 %
 
Step History
        DMIX         DMIXT        Red     Pred      Trust     Lambda    MagRel    MagAbs     Beta
  1   3.5000E-02   3.5000E-02 -1.00E+00  1.00E+00 -1.00E+01  1.00E+00  3.50E-02  3.50E-02  1.00E+00
  2   3.5000E-02   3.5000E-02  7.23E-01  1.00E+00 -1.00E+01  1.00E+00  3.50E-02  4.16E-02  1.00E+00
  3   4.2884E-02   4.2884E-02 -1.00E+00  1.00E+00 -1.00E+01  1.00E+00  4.29E-02  3.69E-02  1.00E+00
:JACOBIANS    7.403E-01   3.288E-03
  
:NORMS:  1/Froebius, Min, Max, Used   0.9862E+00  0.4965E+00  0.9930E+00  0.9864E+00
:INFO :  Number of Memory Steps    2 Skipping    0
:INFO :  SLambda=    0.2884450685  Max    0.2884450685
:PREDicted Charge, CTotal, PW Trust    7.866E-03   4.873E-03   1.174E-01
:PREDicted DMix, Beta, BLim   2.6812E-02  7.0653E-01  2.9145E-01

Eigenvalues, unscaled except for SY+YY
   #     SY Real        SY Imag          SS             YY         SY+YY Real      SY+YY Imag
   1   1.964693E+00   0.000000E+00   1.945313E+00   1.999495E+00   2.566200E+00   0.000000E+00
   2  -1.554312E-15   0.000000E+00   0.000000E+00   5.053172E-04   5.064935E-04   0.000000E+00
 
:INFO :  Singular value  2.566E+00 Weight  1.000E+00 Projection  1.260E-03
:INFO :  Singular value  5.065E-04 Weight  8.652E-01 Projection -1.886E+01
:RANK :  ACTIVE   1.87/2  =  93.26 % ; YY RANK   1.86/2  =  93.23 %
 
:DLIM :  Beta Active  8.000E-01
:BLIM :  VZERO Control Off
:TRUST:  Step 2.98E-01  Charge 7.50E-02 (e) CTO  2.50E-01 (e) PW  3.50E-01 (e)
:DIRM :  MEMORY  2/8  SCALE   1.000 RED  0.96 PRED  1.00 NEXT  0.82 BETA  0.80
:TRAVE:  Charge 2.30E-02 (e) CTO  1.43E-02 (e) PW  4.38E-02 (e)
:DIRP :  |MSR1|= 5.264E-02 |PRATT|= 2.308E-01 ANGLE=  59.6 DEGREES
:DIRQ :  |MSR1|= 1.864E-02 |PRATT|= 7.905E-01 ANGLE=  36.3 DEGREES
:DIRT :  |MSR1|= 5.585E-02 |PRATT|= 8.235E-01 ANGLE=  66.9 DEGREES
:MIX  :   MSD1   REGULARIZATION:  2.00E-04 GREED: 0.03288  Newton 1.00  0.0678                
     
       CHARGES OF MIXED CHARGE DENSITY
:CTO   : INTERSTITIAL CHARGE =     1.580970
:CPC   : PW Pseudocharge     =     5.340643
:CTO001: CHARGE SPHERE  1    =    10.563029
:CTO002: CHARGE SPHERE  2    =     7.856002

:NEC03: NUCLEAR AND ELECTRONIC CHARGE     20.00000    20.00000

PW CHANGE     H    K    L      Current       Change    Residue
:PTO001:      0    0    0  5.49354906E-02 -7.191E-04 -4.218E-03
:PTO002:     -1   -1   -1 -9.24110463E-02  1.985E-03 -3.176E-03
:PTO003:      0    0   -2  9.73398584E-02 -2.220E-03  5.632E-03
:PTO004:      0   -2   -2  8.69762227E-02 -3.392E-03 -8.545E-03
:PTO005:     -1   -1   -3 -3.59013855E-02  2.490E-03  1.874E-02
:PTO006:     -2   -2   -2  2.67019433E-02 -1.560E-03 -8.181E-03
:PTO007:      0    0   -4  8.71015255E-03 -6.986E-04 -4.151E-03
:PTO008:     -1   -3   -3  4.28258417E-03  5.504E-04  4.292E-03
:PTO009:      0   -2   -4  1.19482619E-02 -1.609E-03 -1.376E-02
:PTO010:     -2   -2   -4  8.24111297E-04 -7.616E-04 -9.540E-03
:PTO011:     -3   -3   -3  2.19306762E-03  8.324E-07  5.849E-05
:PTO012:     -1   -1   -5  6.52330063E-03 -2.188E-05 -4.792E-04

:ENE  : ********** TOTAL ENERGY IN Ry =         -551.50881155

 Flat Integration
 New Mode for Coulomb Integral
 Consistent 3/8+Simpson combinations
 Extension of core to zero
 LDM version in phi
 Fifth-order quadrature in outwin


            ---------
:ITE004:  4. ITERATION
            ---------

:NATO :    2 INDEPENDENT AND    2 TOTAL ATOMS IN UNITCELL
       SUBSTANCE: MgO_convergence                                             

       LATTICE                      = F   
:POT  : POTENTIAL OPTION EX_PBE EC_PBE VX_PBE VC_PBE
:LAT  : LATTICE CONSTANTS=  7.95801  7.95801  7.95801    1.571    1.571    1.571
:VOL  : UNIT CELL VOLUME =     125.99528
       MODE OF CALCULATION IS       = RELA
       NON-SPINPOLARIZED CALCULATION
:IFFT  : FFT-parameters:   64   64   64 Factor: 2.00


   CONVERGENCE PARAMETER FOR PSEUDOCHARGE: NCON=  9
   MAXIMAL VALUE OF RMT(JATOM)*ABSK(NKK) : RK  =23.60520


:VKCOUL :  VK-COUL convergence: 0.110E-05
       ATOMNUMBER=  1 Mg1        VCOUL-ZERO =  0.22769E+00
       ATOMNUMBER=  2 O 1        VCOUL-ZERO =  0.41285E+00
:FIT001: LUSE= 13 SIGMA OF V-XC FIT FOR ATOM  1  0.9828079E-02
:FIT001: LUSE= 13 SIGMA OF V-XC FIT FOR ATOM  1  0.9828079E-02
:FIT002: LUSE= 13 SIGMA OF V-XC FIT FOR ATOM  2  0.4144844E-03
:FIT002: LUSE= 13 SIGMA OF V-XC FIT FOR ATOM  2  0.4144844E-03
:DEN  : DENSITY INTEGRAL  =          -267.55848902   (Ry)
       ELS_POTENTIAL_AT Z=0 and Z=0.5:  -2.07278  -2.07278
       ELS_POTENTIAL_AT Y=0 and Y=0.5:   0.00000   0.00000
:VZERO:v0,v0c,v0x  -3.25714  -2.07278  -1.18437 v5,v5c,v5x  -3.25714  -2.07278  -1.18437
:VZERY:v0,v0c,v0x  -0.78795   0.00000  -0.78795 v5,v5c,v5x  -0.78795   0.00000  -0.78795
:VZERX:v0,v0c,v0x  -0.78795   0.00000  -0.78795 v5,v5c,v5x  -0.78795   0.00000  -0.78795
:LMAX-WF:   10   Non-Spherical LMAX:   4

          ATOMIC SPHERE DEPENDENT PARAMETERS FOR ATOM  Mg1       
:e__0001: OVERALL ENERGY PARAMETER IS   -0.0662
          OVERALL BASIS SET ON ATOM IS LAPW
:E0_0001: E( 0)=   -0.0662
             APW+lo
:E0_0001: E( 0)=   -4.9404   E(BOTTOM)=   -5.004   E(TOP)=   -4.877  1  2   162
             LOCAL ORBITAL
:E1_0001: E( 1)=   -0.0662
             APW+lo
:E1_0001: E( 1)=   -2.5140   E(BOTTOM)=   -2.629   E(TOP)=   -2.399  0  1   157
             LOCAL ORBITAL

          ATOMIC SPHERE DEPENDENT PARAMETERS FOR ATOM  O 1       
:e__0002: OVERALL ENERGY PARAMETER IS   -0.0662
          OVERALL BASIS SET ON ATOM IS LAPW
:E0_0002: E( 0)=    0.3338
             APW+lo
:E0_0002: E( 0)=   -1.0840   E(BOTTOM)=   -1.675   E(TOP)=   -0.493  1  2   161
             LOCAL ORBITAL
:E1_0002: E( 1)=   -0.0662
             APW+lo

       K=   0.00000   0.00000   0.00000            1
:RKM  : MATRIX SIZE   194LOs:  13  RKM= 8.84  WEIGHT= 1.00  PGR:    
       EIGENVALUES ARE:
:EIG00001:      -4.9267747   -2.4834366   -2.4834366   -2.4834366   -1.1237235
:EIG00006:       0.1249801    0.1249801    0.1249801    0.5764819    1.4344040
:EIG00011:       1.4344040    1.4344040
       ********************************************************

:KPT   :      NUMBER OF K-POINTS:    72
       Insulator, EF-inconsistency corrected
:GAP (global)   :  0.451502 Ry =     6.143 eV (accurate value if proper k-mesh)
         Bandranges (emin - emax) and occupancy:
:BAN00001:   1   -4.926775   -4.925768  2.00000000
:BAN00002:   2   -2.490917   -2.483437  2.00000000
:BAN00003:   3   -2.487587   -2.483437  2.00000000
:BAN00004:   4   -2.486117   -2.483437  2.00000000
:BAN00005:   5   -1.123724   -1.027620  2.00000000
:BAN00006:   6   -0.150841    0.124980  2.00000000
:BAN00007:   7   -0.052378    0.124980  2.00000000
:BAN00008:   8    0.022569    0.124980  2.00000000
:BAN00009:   9    0.576482    1.078053  0.00000000
:BAN00010:  10    0.979297    1.434404  0.00000000
:BAN00011:  11    1.124476    1.498377  0.00000000
:BAN00012:  12    1.403781    1.613389  0.00000000
:BAN00013:  13    1.545663    1.624276  0.00000000
        Energy to separate low and high energystates:   -0.20084


:NOE  : NUMBER OF ELECTRONS          =   16.000

:FER  : F E R M I - ENERGY(TETRAH.M.)=   0.1249800896
:GMA  : POTENTIAL AND CHARGE CUT-OFF  12.00 Ry**.5

:POS001: ATOM    1 X,Y,Z = 0.00000 0.00000 0.00000  MULT= 1  ZZ= 12.000  Mg1       

       LMMAX  5
       LM=   0 0  4 0  4 4  6 0  6 4

:CHA001: TOTAL VALENCE CHARGE INSIDE SPHERE   1 =   8.2876    (RMT=  1.9800 )
:PCS001: PARTIAL CHARGES SPHERE =  1 S,P,D,F,      D-EG,D-T2G 
:QTL001: 2.1039 6.0937 0.0719 0.0144 0.0000 0.0000 0.0000 0.0538 0.0181 0.0000 0.0000 0.0000
        Q-s-low E-s-low   Q-p-low E-p-low   Q-d-low E-d-low   Q-f-low E-f-low
:EPL001:  2.0076 -4.9010    5.9685 -2.4811    0.0084 -1.0406    0.0020 -1.0522
        Q-s-hi  E-s-hi    Q-p-hi  E-p-hi    Q-d-hi  E-d-hi    Q-f-hi  E-f-hi 
:EPH001:  0.0963 -0.0699    0.1252 -0.0075    0.0635  0.0279    0.0124  0.0430

:POS002: ATOM    2 X,Y,Z = 0.50000 0.00000 0.00000  MULT= 1  ZZ=  8.000  O 1       

       LMMAX  5
       LM=   0 0  4 0  4 4  6 0  6 4

:CHA002: TOTAL VALENCE CHARGE INSIDE SPHERE   2 =   6.5624    (RMT=  1.9800 )
:PCS002: PARTIAL CHARGES SPHERE =  2 S,P,D,F,      D-EG,D-T2G 
:QTL002: 1.8205 4.7310 0.0081 0.0020 0.0000 0.0000 0.0000 0.0034 0.0047 0.0000 0.0000 0.0000
        Q-s-low E-s-low   Q-p-low E-p-low   Q-d-low E-d-low   Q-f-low E-f-low
:EPL002:  1.7999 -1.0525    0.0056 -2.2592    0.0023 -2.5639    0.0011 -2.6599
        Q-s-hi  E-s-hi    Q-p-hi  E-p-hi    Q-d-hi  E-d-hi    Q-f-hi  E-f-hi 
:EPH002:  0.0206 -0.0445    4.7254  0.0174    0.0058  0.0018    0.0009  0.0300

:CHA  : TOTAL VALENCE CHARGE INSIDE UNIT CELL =      16.000000

:SUM  : SUM OF EIGENVALUES =         -26.808588529


        1.ATOM      Mg1                   1 CORE STATES
:1S 001: 1S                 -91.624565196 Ry

        2.ATOM      O 1                   1 CORE STATES
:1S 002: 1S                 -36.941724729 Ry
:CINT001 Core Integral Atom   1    2.000000
:CINT002 Core Integral Atom   2    2.000000

       DENSITY AT NUCLEUS
        JATOM        VALENCE       SEMI-CORE          CORE           TOTAL
:RTO001:   1       70.259172        0.000000     1081.883866     1152.143038
:RTO002:   2       15.520947        0.000000      303.956079      319.477026
     
       CHARGES OF NEW CHARGE DENSITY
:NTO   : INTERSTITIAL CHARGE =     1.150055
:NPC   : PW Pseudocharge     =     5.350724
:NTO001: CHARGE SPHERE  1    =    10.287557
:NTO002: CHARGE SPHERE  2    =     8.562383

:NEC01: NUCLEAR AND ELECTRONIC CHARGE     20.00000    19.99999
     
       CHARGES OF OLD CHARGE DENSITY
:OTO   : INTERSTITIAL CHARGE =     1.580970
:OPC   : PW Pseudocharge     =     5.340643
:OTO001: CHARGE SPHERE  1    =    10.563029
:OTO002: CHARGE SPHERE  2    =     7.856002

:NEC02: NUCLEAR AND ELECTRONIC CHARGE     20.00000    20.00000
     
       CONVERGENCE TEST
:DTO001: DIFFERENCE IN SPHERE  1 =  0.2063601
:DTO002: DIFFERENCE IN SPHERE  2 =  0.7087075

:DIS  :  CHARGE DISTANCE       ( 0.7087075 for atom    2 spin 1)      0.4575338
 PW Mixed is           65
 
******************************************************
* MULTISECANT MIXING VER9 RELEASE 10.4.0              *
* Slow Mode, cautious                                *
* Fixed density scale                                *
* Regularization       1.000E-04                     *
* Step Trust Radius    0.75000                       *
* Trust Upper Limit    2.000E+00                     *
* Max Number of Memory Steps   12                    *
******************************************************
 
:PWTMP   6.0965E+01  1.2800E+02  1.2600E+02
:PLANE:  PW TOTAL      2.2260 DISTAN   2.08E-01  9.34E+00 %
:CHARG:  CLM/ATOM     35.3627 DISTAN   3.70E-01  1.05E+00 %
 
Step History
        DMIX         DMIXT        Red     Pred      Trust     Lambda    MagRel    MagAbs     Beta
  1   3.5000E-02   3.5000E-02 -1.00E+00  1.00E+00 -1.00E+01  1.00E+00  3.50E-02  3.50E-02  1.00E+00
  2   3.5000E-02   3.5000E-02  7.23E-01  1.00E+00 -1.00E+01  1.00E+00  3.50E-02  4.16E-02  1.00E+00
  3   4.2884E-02   4.2884E-02  9.58E-01  1.00E+00 -1.00E+01  2.88E-01  4.29E-02  3.69E-02  1.00E+00
  4   3.2877E-02   3.2877E-02 -1.00E+00  8.25E-01  2.98E-01  1.00E+00  6.78E-02  5.58E-02  8.00E-01
:JACOBIANS    8.850E-01   1.962E-01
  
:NORMS:  1/Froebius, Min, Max, Used   0.8850E+00  0.4918E+00  0.1000E+01  0.9990E+00
:INFO :  Number of Memory Steps    3 Skipping    0
:INFO :  SLambda=    1.3103562185  Max    1.3103562185
:PREDicted Charge, CTotal, PW Trust    3.868E-01   2.393E-01   2.053E-01
:PREDicted DMix, Beta, BLim   4.0247E-01  4.5565E+00  5.0676E-01

Eigenvalues, unscaled except for SY+YY
   #     SY Real        SY Imag          SS             YY         SY+YY Real      SY+YY Imag
   1   2.246452E+00   0.000000E+00   2.247316E+00   2.251597E+00   5.194200E+00   0.000000E+00
   2  -2.240072E-15   0.000000E+00   1.022864E-01   7.480795E-01   3.843334E-04   0.000000E+00
   3   2.101038E-01   0.000000E+00   1.415630E-18   3.238295E-04   1.024380E+00   0.000000E+00
 
:INFO :  Singular value  5.196E+00 Weight  1.000E+00 Projection  1.614E-02
:INFO :  Singular value  1.024E+00 Weight  1.000E+00 Projection -8.941E-01
:INFO :  Singular value  3.843E-04 Weight  7.445E-01 Projection  3.413E+00
:RANK :  ACTIVE   2.74/3  =  91.48 % ; YY RANK   2.67/3  =  89.14 %
 
:BLIM :  VZERO Control Off
:TRUST:  Step 3.37E-01  Charge 8.25E-02 (e) CTO  2.50E-01 (e) PW  3.50E-01 (e)
:DTRUS:  Lambda    2.150E+01 Increment    7.276E-12 Iterations   141 DMIX    1.840E-02
:INFOA:  Angle SubSpace to MSR1     11.99
:DIRM :  MEMORY  3/12 SCALE   1.000 RED  0.93 PRED  0.82 NEXT  0.66 
:INFO :  Limited by Atoms F by Step T

:TRAVE:  Charge 5.28E-02 (e) CTO  3.23E-02 (e) PW  3.35E-02 (e)
:DIRP :  |MSR1|= 2.350E-02 |PRATT|= 2.079E-01 ANGLE=   4.3 DEGREES
:DIRQ :  |MSR1|= 6.716E-02 |PRATT|= 7.409E-01 ANGLE=  32.1 DEGREES
:DIRT :  |MSR1|= 7.116E-02 |PRATT|= 7.695E-01 ANGLE=  30.8 DEGREES
:MIX  :   MSE1   REGULARIZATION:  2.25E-04 GREED: 0.08219  LMStep 0.22  0.0925 Charge         
     
       CHARGES OF MIXED CHARGE DENSITY
:CTO   : INTERSTITIAL CHARGE =     1.530590
:CPC   : PW Pseudocharge     =     5.343198
:CTO001: CHARGE SPHERE  1    =    10.530909
:CTO002: CHARGE SPHERE  2    =     7.938502

:NEC03: NUCLEAR AND ELECTRONIC CHARGE     20.00000    20.00000

PW CHANGE     H    K    L      Current       Change    Residue
:PTO001:      0    0    0  5.45559169E-02 -3.796E-04 -3.340E-03
:PTO002:     -1   -1   -1 -9.29373224E-02 -5.263E-04 -5.066E-03
:PTO003:      0    0   -2  9.83043920E-02  9.645E-04  7.620E-03
:PTO004:      0   -2   -2  8.64610243E-02 -5.152E-04 -5.520E-03
:PTO005:     -1   -1   -3 -3.40094182E-02  1.892E-03  1.660E-02
:PTO006:     -2   -2   -2  2.59748577E-02 -7.271E-04 -6.752E-03
:PTO007:      0    0   -4  8.35042691E-03 -3.597E-04 -3.485E-03
:PTO008:     -1   -3   -3  4.66012571E-03  3.775E-04  3.834E-03
:PTO009:      0   -2   -4  1.06212778E-02 -1.327E-03 -1.220E-02
:PTO010:     -2   -2   -4 -1.65026113E-04 -9.891E-04 -8.777E-03
:PTO011:     -3   -3   -3  2.18617946E-03 -6.888E-06  5.903E-05
:PTO012:     -1   -1   -5  6.41346464E-03 -1.098E-04 -4.536E-04

:ENE  : ********** TOTAL ENERGY IN Ry =         -551.49965740

 Flat Integration
 New Mode for Coulomb Integral
 Consistent 3/8+Simpson combinations
 Extension of core to zero
 LDM version in phi
 Fifth-order quadrature in outwin


            ---------
:ITE005:  5. ITERATION
            ---------

:NATO :    2 INDEPENDENT AND    2 TOTAL ATOMS IN UNITCELL
       SUBSTANCE: MgO_convergence                                             

       LATTICE                      = F   
:POT  : POTENTIAL OPTION EX_PBE EC_PBE VX_PBE VC_PBE
:LAT  : LATTICE CONSTANTS=  7.95801  7.95801  7.95801    1.571    1.571    1.571
:VOL  : UNIT CELL VOLUME =     125.99528
       MODE OF CALCULATION IS       = RELA
       NON-SPINPOLARIZED CALCULATION
:IFFT  : FFT-parameters:   64   64   64 Factor: 2.00


   CONVERGENCE PARAMETER FOR PSEUDOCHARGE: NCON=  9
   MAXIMAL VALUE OF RMT(JATOM)*ABSK(NKK) : RK  =23.60520


:VKCOUL :  VK-COUL convergence: 0.108E-05
       ATOMNUMBER=  1 Mg1        VCOUL-ZERO =  0.21709E+00
       ATOMNUMBER=  2 O 1        VCOUL-ZERO =  0.41856E+00
:FIT001: LUSE= 13 SIGMA OF V-XC FIT FOR ATOM  1  0.1065383E-01
:FIT001: LUSE= 13 SIGMA OF V-XC FIT FOR ATOM  1  0.1065383E-01
:FIT002: LUSE= 13 SIGMA OF V-XC FIT FOR ATOM  2  0.1823813E-03
:FIT002: LUSE= 13 SIGMA OF V-XC FIT FOR ATOM  2  0.1823813E-03
:DEN  : DENSITY INTEGRAL  =          -267.67989828   (Ry)
       ELS_POTENTIAL_AT Z=0 and Z=0.5:  -2.04274  -2.04274
       ELS_POTENTIAL_AT Y=0 and Y=0.5:   0.00000   0.00000
:VZERO:v0,v0c,v0x  -3.23238  -2.04274  -1.18965 v5,v5c,v5x  -3.23238  -2.04274  -1.18965
:VZERY:v0,v0c,v0x  -0.78334   0.00000  -0.78334 v5,v5c,v5x  -0.78334   0.00000  -0.78334
:VZERX:v0,v0c,v0x  -0.78334   0.00000  -0.78334 v5,v5c,v5x  -0.78334   0.00000  -0.78334
:LMAX-WF:   10   Non-Spherical LMAX:   4

          ATOMIC SPHERE DEPENDENT PARAMETERS FOR ATOM  Mg1       
:e__0001: OVERALL ENERGY PARAMETER IS   -0.0721
          OVERALL BASIS SET ON ATOM IS LAPW
:E0_0001: E( 0)=   -0.0721
             APW+lo
:E0_0001: E( 0)=   -4.9636   E(BOTTOM)=   -5.027   E(TOP)=   -4.900  1  2   157
             LOCAL ORBITAL
:E1_0001: E( 1)=   -0.0721
             APW+lo
:E1_0001: E( 1)=   -2.5369   E(BOTTOM)=   -2.651   E(TOP)=   -2.422  0  1   160
             LOCAL ORBITAL

          ATOMIC SPHERE DEPENDENT PARAMETERS FOR ATOM  O 1       
:e__0002: OVERALL ENERGY PARAMETER IS   -0.0721
          OVERALL BASIS SET ON ATOM IS LAPW
:E0_0002: E( 0)=    0.3279
             APW+lo
:E0_0002: E( 0)=   -1.0445   E(BOTTOM)=   -1.644   E(TOP)=   -0.445  1  2   156
             LOCAL ORBITAL
:E1_0002: E( 1)=   -0.0721
             APW+lo

       K=   0.00000   0.00000   0.00000            1
:RKM  : MATRIX SIZE   194LOs:  13  RKM= 8.84  WEIGHT= 1.00  PGR:    
       EIGENVALUES ARE:
:EIG00001:      -4.9500268   -2.5065663   -2.5065663   -2.5065663   -1.0909525
:EIG00006:       0.1627439    0.1627439    0.1627439    0.5863640    1.4349112
:EIG00011:       1.4349112    1.4349112
       ********************************************************

:KPT   :      NUMBER OF K-POINTS:    72
       Insulator, EF-inconsistency corrected
:GAP (global)   :  0.423620 Ry =     5.764 eV (accurate value if proper k-mesh)
         Bandranges (emin - emax) and occupancy:
:BAN00001:   1   -4.950027   -4.949041  2.00000000
:BAN00002:   2   -2.513790   -2.506566  2.00000000
:BAN00003:   3   -2.510618   -2.506566  2.00000000
:BAN00004:   4   -2.509162   -2.506566  2.00000000
:BAN00005:   5   -1.090953   -0.989898  2.00000000
:BAN00006:   6   -0.128175    0.162744  2.00000000
:BAN00007:   7   -0.025562    0.162744  2.00000000
:BAN00008:   8    0.054098    0.162744  2.00000000
:BAN00009:   9    0.586364    1.091114  0.00000000
:BAN00010:  10    0.986557    1.434911  0.00000000
:BAN00011:  11    1.138772    1.499063  0.00000000
:BAN00012:  12    1.406844    1.621723  0.00000000
:BAN00013:  13    1.551424    1.625088  0.00000000
        Energy to separate low and high energystates:   -0.17818


:NOE  : NUMBER OF ELECTRONS          =   16.000

:FER  : F E R M I - ENERGY(TETRAH.M.)=   0.1627438927
:GMA  : POTENTIAL AND CHARGE CUT-OFF  12.00 Ry**.5

:POS001: ATOM    1 X,Y,Z = 0.00000 0.00000 0.00000  MULT= 1  ZZ= 12.000  Mg1       

       LMMAX  5
       LM=   0 0  4 0  4 4  6 0  6 4

:CHA001: TOTAL VALENCE CHARGE INSIDE SPHERE   1 =   8.3078    (RMT=  1.9800 )
:PCS001: PARTIAL CHARGES SPHERE =  1 S,P,D,F,      D-EG,D-T2G 
:QTL001: 2.1111 6.1028 0.0756 0.0148 0.0000 0.0000 0.0000 0.0561 0.0195 0.0000 0.0000 0.0000
        Q-s-low E-s-low   Q-p-low E-p-low   Q-d-low E-d-low   Q-f-low E-f-low
:EPL001:  2.0085 -4.9222    5.9702 -2.5038    0.0087 -1.0034    0.0020 -1.0154
        Q-s-hi  E-s-hi    Q-p-hi  E-p-hi    Q-d-hi  E-d-hi    Q-f-hi  E-f-hi 
:EPH001:  0.1025 -0.0429    0.1325  0.0227    0.0669  0.0599    0.0127  0.0760

:POS002: ATOM    2 X,Y,Z = 0.50000 0.00000 0.00000  MULT= 1  ZZ=  8.000  O 1       

       LMMAX  5
       LM=   0 0  4 0  4 4  6 0  6 4

:CHA002: TOTAL VALENCE CHARGE INSIDE SPHERE   2 =   6.4918    (RMT=  1.9800 )
:PCS002: PARTIAL CHARGES SPHERE =  2 S,P,D,F,      D-EG,D-T2G 
:QTL002: 1.8145 4.6657 0.0087 0.0020 0.0000 0.0000 0.0000 0.0035 0.0052 0.0000 0.0000 0.0000
        Q-s-low E-s-low   Q-p-low E-p-low   Q-d-low E-d-low   Q-f-low E-f-low
:EPL002:  1.7913 -1.0160    0.0056 -2.2262    0.0023 -2.5684    0.0011 -2.6754
        Q-s-hi  E-s-hi    Q-p-hi  E-p-hi    Q-d-hi  E-d-hi    Q-f-hi  E-f-hi 
:EPH002:  0.0232 -0.0163    4.6601  0.0493    0.0064  0.0328    0.0010  0.0625

:CHA  : TOTAL VALENCE CHARGE INSIDE UNIT CELL =      16.000000

:SUM  : SUM OF EIGENVALUES =         -26.735202217


        1.ATOM      Mg1                   1 CORE STATES
:1S 001: 1S                 -91.652687486 Ry

        2.ATOM      O 1                   1 CORE STATES
:1S 002: 1S                 -36.875262786 Ry
:CINT001 Core Integral Atom   1    2.000000
:CINT002 Core Integral Atom   2    2.000000

       DENSITY AT NUCLEUS
        JATOM        VALENCE       SEMI-CORE          CORE           TOTAL
:RTO001:   1       70.371525        0.000000     1081.900527     1152.272052
:RTO002:   2       15.320865        0.000000      303.958486      319.279350
     
       CHARGES OF NEW CHARGE DENSITY
:NTO   : INTERSTITIAL CHARGE =     1.200406
:NPC   : PW Pseudocharge     =     5.373100
:NTO001: CHARGE SPHERE  1    =    10.307829
:NTO002: CHARGE SPHERE  2    =     8.491760

:NEC01: NUCLEAR AND ELECTRONIC CHARGE     20.00000    19.99999
     
       CHARGES OF OLD CHARGE DENSITY
:OTO   : INTERSTITIAL CHARGE =     1.530590
:OPC   : PW Pseudocharge     =     5.343198
:OTO001: CHARGE SPHERE  1    =    10.530909
:OTO002: CHARGE SPHERE  2    =     7.938502

:NEC02: NUCLEAR AND ELECTRONIC CHARGE     20.00000    20.00000
     
       CONVERGENCE TEST
:DTO001: DIFFERENCE IN SPHERE  1 =  0.1672404
:DTO002: DIFFERENCE IN SPHERE  2 =  0.5327798

:DIS  :  CHARGE DISTANCE       ( 0.5327798 for atom    2 spin 1)      0.3500101
 PW Mixed is           65
 
******************************************************
* MULTISECANT MIXING VER9 RELEASE 10.4.0              *
* Standard Mode with controls                        *
* Fixed density scale                                *
* Regularization       1.000E-04                     *
* Trust Upper Limit    5.000E+00                     *
* Max Number of Memory Steps    8                    *
******************************************************
 
:PWTMP   6.0965E+01  1.2800E+02  1.2600E+02
:PLANE:  PW TOTAL      2.2229 DISTAN   1.81E-01  8.16E+00 %
:CHARG:  CLM/ATOM     35.3575 DISTAN   2.81E-01  7.94E-01 %
 
Step History
        DMIX         DMIXT        Red     Pred      Trust     Lambda    MagRel    MagAbs     Beta
  1   3.5000E-02   3.5000E-02 -1.00E+00  1.00E+00 -1.00E+01  1.00E+00  3.50E-02  3.50E-02  1.00E+00
  2   3.5000E-02   3.5000E-02  7.23E-01  1.00E+00 -1.00E+01  1.00E+00  3.50E-02  4.16E-02  1.00E+00
  3   4.2884E-02   4.2884E-02  9.58E-01  1.00E+00 -1.00E+01  2.88E-01  4.29E-02  3.69E-02  1.00E+00
  4   3.2877E-02   3.2877E-02  9.34E-01  8.25E-01  2.98E-01  1.31E+00  6.78E-02  5.58E-02  8.00E-01
  5   8.2193E-02   1.8402E-02 -1.00E+00  6.57E-01  3.37E-01  1.00E+00  9.25E-02  7.12E-02  1.00E+00
:JACOBIANS    9.564E-01   2.502E-01
  
:NORMS:  1/Froebius, Min, Max, Used   0.6136E+00  0.5352E+00  0.9994E+00  0.6151E+00
:INFO :  Number of Memory Steps    4 Skipping    0
:INFO :  SLambda=    1.6385749480  Max    1.6385749480
:PREDicted Charge, CTotal, PW Trust    3.519E-01   2.140E-01   1.499E-01
:PREDicted DMix, Beta, BLim   4.3402E-02  1.4276E+00  4.2535E-01

Eigenvalues, unscaled except for SY+YY
   #     SY Real        SY Imag          SS             YY         SY+YY Real      SY+YY Imag
   1   1.345402E+00   0.000000E+00   1.163268E+00   3.074127E+00   4.973027E+00   0.000000E+00
   2   5.958876E-01   0.000000E+00   3.429637E-01   9.256928E-01   2.207708E+00   0.000000E+00
   3  -1.659420E-15   0.000000E+00   1.379464E-05   1.535120E-04   1.924395E-04   0.000000E+00
   4   2.065808E-05   0.000000E+00  -1.434772E-16   2.633307E-05   5.392195E-05   0.000000E+00
 
:INFO :  Singular value  4.978E+00 Weight  1.000E+00 Projection -2.459E-01
:INFO :  Singular value  2.205E+00 Weight  1.000E+00 Projection -3.226E-01
:INFO :  Singular value  1.925E-04 Weight  2.817E-01 Projection  2.948E+00
:INFO :  Singular value  5.390E-05 Weight  2.982E-02 Projection -1.063E+00
:RANK :  ACTIVE   2.31/4  =  57.79 % ; YY RANK   2.21/4  =  55.17 %
 
Increasing Charge by   1.337
:BLIM :  VZERO Control Off
:TRUST:  Step 4.39E-01  Charge 1.21E-01 (e) CTO  2.50E-01 (e) PW  3.50E-01 (e)
:DTRUS:  Lambda    4.892E+00 Increment    7.276E-12 Iterations   122 DMIX    3.375E-02
:INFOA:  Angle SubSpace to MSR1     16.31
:DIRM :  MEMORY  4/8  SCALE   1.000 RED  0.77 PRED  0.66 NEXT  0.59 
:INFO :  Limited by Atoms F by Step T

:TRAVE:  Charge 8.70E-02 (e) CTO  5.25E-02 (e) PW  3.22E-02 (e)
:DIRP :  |MSR1|= 3.759E-02 |PRATT|= 1.815E-01 ANGLE=   5.3 DEGREES
:DIRQ :  |MSR1|= 9.873E-02 |PRATT|= 5.614E-01 ANGLE=  30.8 DEGREES
:DIRT :  |MSR1|= 1.056E-01 |PRATT|= 5.900E-01 ANGLE=  29.2 DEGREES
:MIX  :   MSE1   REGULARIZATION:  3.07E-04 GREED: 0.05123  LMStep 0.42  0.1790 Charge         
     
       CHARGES OF MIXED CHARGE DENSITY
:CTO   : INTERSTITIAL CHARGE =     1.457840
:CPC   : PW Pseudocharge     =     5.352169
:CTO001: CHARGE SPHERE  1    =    10.482341
:CTO002: CHARGE SPHERE  2    =     8.059819

:NEC03: NUCLEAR AND ELECTRONIC CHARGE     20.00000    20.00000

PW CHANGE     H    K    L      Current       Change    Residue
:PTO001:      0    0    0  5.40497129E-02 -5.062E-04 -2.383E-03
:PTO002:     -1   -1   -1 -9.37689725E-02 -8.317E-04 -4.066E-03
:PTO003:      0    0   -2  9.97204637E-02  1.416E-03  5.751E-03
:PTO004:      0   -2   -2  8.53767050E-02 -1.084E-03 -6.378E-03
:PTO005:     -1   -1   -3 -3.07056066E-02  3.304E-03  1.603E-02
:PTO006:     -2   -2   -2  2.47045639E-02 -1.270E-03 -6.500E-03
:PTO007:      0    0   -4  7.73628795E-03 -6.141E-04 -3.236E-03
:PTO008:     -1   -3   -3  5.35184706E-03  6.917E-04  3.766E-03
:PTO009:      0   -2   -4  8.42368289E-03 -2.198E-03 -1.099E-02
:PTO010:     -2   -2   -4 -1.77143441E-03 -1.606E-03 -7.744E-03
:PTO011:     -3   -3   -3  2.17993876E-03 -6.241E-06  6.241E-05
:PTO012:     -1   -1   -5  6.25672802E-03 -1.567E-04 -3.523E-04

:ENE  : ********** TOTAL ENERGY IN Ry =         -551.47100104

 Flat Integration
 New Mode for Coulomb Integral
 Consistent 3/8+Simpson combinations
 Extension of core to zero
 LDM version in phi
 Fifth-order quadrature in outwin


            ---------
:ITE006:  6. ITERATION
            ---------

:NATO :    2 INDEPENDENT AND    2 TOTAL ATOMS IN UNITCELL
       SUBSTANCE: MgO_convergence                                             

       LATTICE                      = F   
:POT  : POTENTIAL OPTION EX_PBE EC_PBE VX_PBE VC_PBE
:LAT  : LATTICE CONSTANTS=  7.95801  7.95801  7.95801    1.571    1.571    1.571
:VOL  : UNIT CELL VOLUME =     125.99528
       MODE OF CALCULATION IS       = RELA
       NON-SPINPOLARIZED CALCULATION
:IFFT  : FFT-parameters:   64   64   64 Factor: 2.00


   CONVERGENCE PARAMETER FOR PSEUDOCHARGE: NCON=  9
   MAXIMAL VALUE OF RMT(JATOM)*ABSK(NKK) : RK  =23.60520


:VKCOUL :  VK-COUL convergence: 0.105E-05
       ATOMNUMBER=  1 Mg1        VCOUL-ZERO =  0.20205E+00
       ATOMNUMBER=  2 O 1        VCOUL-ZERO =  0.42793E+00
:FIT001: LUSE= 13 SIGMA OF V-XC FIT FOR ATOM  1  0.1178181E-01
:FIT001: LUSE= 13 SIGMA OF V-XC FIT FOR ATOM  1  0.1178181E-01
:FIT002: LUSE= 13 SIGMA OF V-XC FIT FOR ATOM  2  0.2002307E-03
:FIT002: LUSE= 13 SIGMA OF V-XC FIT FOR ATOM  2  0.2002307E-03
:DEN  : DENSITY INTEGRAL  =          -267.87185669   (Ry)
       ELS_POTENTIAL_AT Z=0 and Z=0.5:  -2.00170  -2.00170
       ELS_POTENTIAL_AT Y=0 and Y=0.5:   0.00000   0.00000
:VZERO:v0,v0c,v0x  -3.20032  -2.00170  -1.19862 v5,v5c,v5x  -3.20032  -2.00170  -1.19862
:VZERY:v0,v0c,v0x  -0.77629   0.00000  -0.77629 v5,v5c,v5x  -0.77629   0.00000  -0.77629
:VZERX:v0,v0c,v0x  -0.77629   0.00000  -0.77629 v5,v5c,v5x  -0.77629   0.00000  -0.77629
:LMAX-WF:   10   Non-Spherical LMAX:   4

          ATOMIC SPHERE DEPENDENT PARAMETERS FOR ATOM  Mg1       
:e__0001: OVERALL ENERGY PARAMETER IS   -0.0489
          OVERALL BASIS SET ON ATOM IS LAPW
:E0_0001: E( 0)=   -0.0489
             APW+lo
:E0_0001: E( 0)=   -4.9966   E(BOTTOM)=   -5.059   E(TOP)=   -4.934  1  2   153
             LOCAL ORBITAL
:E1_0001: E( 1)=   -0.0489
             APW+lo
:E1_0001: E( 1)=   -2.5694   E(BOTTOM)=   -2.683   E(TOP)=   -2.456  0  1   154
             LOCAL ORBITAL

          ATOMIC SPHERE DEPENDENT PARAMETERS FOR ATOM  O 1       
:e__0002: OVERALL ENERGY PARAMETER IS   -0.0489
          OVERALL BASIS SET ON ATOM IS LAPW
:E0_0002: E( 0)=    0.3511
             APW+lo
:E0_0002: E( 0)=   -0.9868   E(BOTTOM)=   -1.598   E(TOP)=   -0.375  1  2   161
             LOCAL ORBITAL
:E1_0002: E( 1)=   -0.0489
             APW+lo

       K=   0.00000   0.00000   0.00000            1
:RKM  : MATRIX SIZE   194LOs:  13  RKM= 8.84  WEIGHT= 1.00  PGR:    
       EIGENVALUES ARE:
:EIG00001:      -4.9831778   -2.5394509   -2.5394509   -2.5394509   -1.0437192
:EIG00006:       0.2172875    0.2172875    0.2172875    0.6026772    1.4369426
:EIG00011:       1.4369426    1.4369426
       ********************************************************

:KPT   :      NUMBER OF K-POINTS:    72
       Insulator, EF-inconsistency corrected
:GAP (global)   :  0.385390 Ry =     5.243 eV (accurate value if proper k-mesh)
         Bandranges (emin - emax) and occupancy:
:BAN00001:   1   -4.983178   -4.982219  2.00000000
:BAN00002:   2   -2.546331   -2.539451  2.00000000
:BAN00003:   3   -2.543358   -2.539451  2.00000000
:BAN00004:   4   -2.541936   -2.539451  2.00000000
:BAN00005:   5   -1.043719   -0.935165  2.00000000
:BAN00006:   6   -0.096066    0.217287  2.00000000
:BAN00007:   7    0.012509    0.217287  2.00000000
:BAN00008:   8    0.099088    0.217287  2.00000000
:BAN00009:   9    0.602677    1.111647  0.00000000
:BAN00010:  10    0.996912    1.436943  0.00000000
:BAN00011:  11    1.165118    1.501245  0.00000000
:BAN00012:  12    1.412530    1.634343  0.00000000
:BAN00013:  13    1.560735    1.646363  0.00000000
        Energy to separate low and high energystates:   -0.14607


:NOE  : NUMBER OF ELECTRONS          =   16.000

:FER  : F E R M I - ENERGY(TETRAH.M.)=   0.2172874713
:GMA  : POTENTIAL AND CHARGE CUT-OFF  12.00 Ry**.5

:POS001: ATOM    1 X,Y,Z = 0.00000 0.00000 0.00000  MULT= 1  ZZ= 12.000  Mg1       

       LMMAX  5
       LM=   0 0  4 0  4 4  6 0  6 4

:CHA001: TOTAL VALENCE CHARGE INSIDE SPHERE   1 =   8.3383    (RMT=  1.9800 )
:PCS001: PARTIAL CHARGES SPHERE =  1 S,P,D,F,      D-EG,D-T2G 
:QTL001: 2.1218 6.1164 0.0813 0.0153 0.0000 0.0000 0.0000 0.0597 0.0216 0.0000 0.0000 0.0000
        Q-s-low E-s-low   Q-p-low E-p-low   Q-d-low E-d-low   Q-f-low E-f-low
:EPL001:  2.0099 -4.9522    5.9727 -2.5360    0.0092 -0.9496    0.0021 -0.9621
        Q-s-hi  E-s-hi    Q-p-hi  E-p-hi    Q-d-hi  E-d-hi    Q-f-hi  E-f-hi 
:EPH001:  0.1118 -0.0043    0.1436  0.0660    0.0721  0.1058    0.0132  0.1233

:POS002: ATOM    2 X,Y,Z = 0.50000 0.00000 0.00000  MULT= 1  ZZ=  8.000  O 1       

       LMMAX  5
       LM=   0 0  4 0  4 4  6 0  6 4

:CHA002: TOTAL VALENCE CHARGE INSIDE SPHERE   2 =   6.3869    (RMT=  1.9800 )
:PCS002: PARTIAL CHARGES SPHERE =  2 S,P,D,F,      D-EG,D-T2G 
:QTL002: 1.8056 4.5687 0.0097 0.0022 0.0000 0.0000 0.0000 0.0037 0.0060 0.0000 0.0000 0.0000
        Q-s-low E-s-low   Q-p-low E-p-low   Q-d-low E-d-low   Q-f-low E-f-low
:EPL002:  1.7782 -0.9632    0.0056 -2.1687    0.0023 -2.5703    0.0010 -2.6958
        Q-s-hi  E-s-hi    Q-p-hi  E-p-hi    Q-d-hi  E-d-hi    Q-f-hi  E-f-hi 
:EPH002:  0.0274  0.0240    4.5631  0.0950    0.0074  0.0774    0.0011  0.1093

:CHA  : TOTAL VALENCE CHARGE INSIDE UNIT CELL =      16.000000

:SUM  : SUM OF EIGENVALUES =         -26.627509042


        1.ATOM      Mg1                   1 CORE STATES
:1S 001: 1S                 -91.691669404 Ry

        2.ATOM      O 1                   1 CORE STATES
:1S 002: 1S                 -36.780619998 Ry
:CINT001 Core Integral Atom   1    2.000000
:CINT002 Core Integral Atom   2    2.000000

       DENSITY AT NUCLEUS
        JATOM        VALENCE       SEMI-CORE          CORE           TOTAL
:RTO001:   1       70.532633        0.000000     1081.923526     1152.456159
:RTO002:   2       15.034925        0.000000      303.966932      319.001857
     
       CHARGES OF NEW CHARGE DENSITY
:NTO   : INTERSTITIAL CHARGE =     1.274718
:NPC   : PW Pseudocharge     =     5.396768
:NTO001: CHARGE SPHERE  1    =    10.338344
:NTO002: CHARGE SPHERE  2    =     8.386933

:NEC01: NUCLEAR AND ELECTRONIC CHARGE     20.00000    19.99999
     
       CHARGES OF OLD CHARGE DENSITY
:OTO   : INTERSTITIAL CHARGE =     1.457840
:OPC   : PW Pseudocharge     =     5.352169
:OTO001: CHARGE SPHERE  1    =    10.482341
:OTO002: CHARGE SPHERE  2    =     8.059819

:NEC02: NUCLEAR AND ELECTRONIC CHARGE     20.00000    20.00000
     
       CONVERGENCE TEST
:DTO001: DIFFERENCE IN SPHERE  1 =  0.1131007
:DTO002: DIFFERENCE IN SPHERE  2 =  0.2883515

:DIS  :  CHARGE DISTANCE       ( 0.2883515 for atom    2 spin 1)      0.2007261
 PW Mixed is           65
 
******************************************************
* MULTISECANT MIXING VER9 RELEASE 10.4.0              *
* Standard Mode with controls                        *
* Fixed density scale                                *
* Regularization       1.000E-04                     *
* Trust Upper Limit    5.000E+00                     *
* Max Number of Memory Steps    8                    *
******************************************************
 
:PWTMP   6.0965E+01  1.2800E+02  1.2600E+02
:PLANE:  PW TOTAL      2.2187 DISTAN   1.48E-01  6.69E+00 %
:CHARG:  CLM/ATOM     35.3491 DISTAN   1.57E-01  4.43E-01 %
 
Step History
        DMIX         DMIXT        Red     Pred      Trust     Lambda    MagRel    MagAbs     Beta
  1   3.5000E-02   3.5000E-02 -1.00E+00  1.00E+00 -1.00E+01  1.00E+00  3.50E-02  3.50E-02  1.00E+00
  2   3.5000E-02   3.5000E-02  7.23E-01  1.00E+00 -1.00E+01  1.00E+00  3.50E-02  4.16E-02  1.00E+00
  3   4.2884E-02   4.2884E-02  9.58E-01  1.00E+00 -1.00E+01  2.88E-01  4.29E-02  3.69E-02  1.00E+00
  4   3.2877E-02   3.2877E-02  9.34E-01  8.25E-01  2.98E-01  1.31E+00  6.78E-02  5.58E-02  8.00E-01
  5   8.2193E-02   1.8402E-02  7.67E-01  6.57E-01  3.37E-01  1.64E+00  9.25E-02  7.12E-02  1.00E+00
  6   5.1227E-02   3.3755E-02 -1.00E+00  5.87E-01  4.39E-01  1.00E+00  1.79E-01  1.06E-01  1.00E+00
:JACOBIANS    1.037E+00   3.520E-01
  
:NORMS:  1/Froebius, Min, Max, Used   0.5072E+00  0.4365E+00  0.1000E+01  0.5536E+00
:INFO :  Number of Memory Steps    5 Skipping    0
:INFO :  SLambda=    2.2908012380  Max    2.2908012380
:PREDicted Charge, CTotal, PW Trust    2.969E-01   1.609E-01   1.239E-01
:PREDicted DMix, Beta, BLim   2.7666E-01  1.6858E+00  5.6907E-01

Eigenvalues, unscaled except for SY+YY
   #     SY Real        SY Imag          SS             YY         SY+YY Real      SY+YY Imag
   1   1.408479E+00   0.000000E+00   8.450089E-01   4.434413E+00   7.595522E+00   0.000000E+00
   2   5.132666E-01   0.000000E+00   4.413416E-01   5.651635E-01   1.806384E+00   0.000000E+00
   3   2.527057E-04   0.000000E+00   1.609240E-04   3.863704E-04   9.575578E-04   0.000000E+00
   4  -7.174104E-08   0.000000E+00   4.006093E-08   3.694820E-05   5.121128E-05   0.000000E+00
   5  -5.050128E-15   0.000000E+00  -8.546728E-18   3.083371E-07   3.835689E-07   0.000000E+00
 
:INFO :  Singular value  7.603E+00 Weight  1.000E+00 Projection -1.355E-01
:INFO :  Singular value  1.805E+00 Weight  1.000E+00 Projection -1.992E-01
:INFO :  Singular value  9.576E-04 Weight  8.234E-01 Projection -8.068E+00
:INFO :  Singular value  5.125E-05 Weight  1.318E-02 Projection -1.040E-01
:INFO :  Singular value  3.832E-07 Weight  7.469E-07 Projection  3.347E-05
:RANK :  ACTIVE   2.84/5  =  56.73 % ; YY RANK   2.44/5  =  48.77 %
 
Increasing Charge by   1.667
:BLIM :  VZERO Control Off
:TRUST:  Step 5.86E-01  Charge 2.22E-01 (e) CTO  2.50E-01 (e) PW  3.50E-01 (e)
:DTRUS:  Lambda    8.606E-01 Increment    7.276E-12 Iterations   101 DMIX    1.226E-01
:INFOA:  Angle SubSpace to MSR1      6.34
:DIRM :  MEMORY  5/8  SCALE   1.000 RED  0.59 PRED  0.59 NEXT  0.27 
:INFO :  Limited by Atoms F by Step T

:TRAVE:  Charge 1.21E-01 (e) CTO  6.55E-02 (e) PW  4.63E-02 (e)
:DIRP :  |MSR1|= 1.414E-01 |PRATT|= 1.484E-01 ANGLE=  27.8 DEGREES
:DIRQ :  |MSR1|= 1.459E-01 |PRATT|= 3.134E-01 ANGLE=  34.7 DEGREES
:DIRT :  |MSR1|= 2.032E-01 |PRATT|= 3.468E-01 ANGLE=  37.1 DEGREES
:MIX  :   MSE1   REGULARIZATION:  4.43E-04 GREED: 0.12807  LMStep 0.79  0.5858 Step           
     
       CHARGES OF MIXED CHARGE DENSITY
:CTO   : INTERSTITIAL CHARGE =     1.379379
:CPC   : PW Pseudocharge     =     5.305914
:CTO001: CHARGE SPHERE  1    =    10.406299
:CTO002: CHARGE SPHERE  2    =     8.214322

:NEC03: NUCLEAR AND ELECTRONIC CHARGE     20.00000    20.00000

PW CHANGE     H    K    L      Current       Change    Residue
:PTO001:      0    0    0  5.30598710E-02 -9.898E-04 -1.099E-03
:PTO002:     -1   -1   -1 -9.18990706E-02  1.870E-03 -2.068E-03
:PTO003:      0    0   -2  9.78342629E-02 -1.886E-03  2.746E-03
:PTO004:      0   -2   -2  7.56569601E-02 -9.720E-03 -7.568E-03
:PTO005:     -1   -1   -3 -1.75353430E-02  1.317E-02  1.498E-02
:PTO006:     -2   -2   -2  1.89092539E-02 -5.795E-03 -6.011E-03
:PTO007:      0    0   -4  5.16922331E-03 -2.567E-03 -2.812E-03
:PTO008:     -1   -3   -3  8.43941094E-03  3.088E-03  3.587E-03
:PTO009:      0   -2   -4  1.16070755E-03 -7.263E-03 -9.006E-03
:PTO010:     -2   -2   -4 -6.17588606E-03 -4.404E-03 -6.077E-03
:PTO011:     -3   -3   -3  2.21324765E-03  3.331E-05  6.142E-05
:PTO012:     -1   -1   -5  6.09758017E-03 -1.591E-04 -2.172E-04

:ENE  : ********** TOTAL ENERGY IN Ry =         -551.44394454

 Flat Integration
 New Mode for Coulomb Integral
 Consistent 3/8+Simpson combinations
 Extension of core to zero
 LDM version in phi
 Fifth-order quadrature in outwin


            ---------
:ITE007:  7. ITERATION
            ---------

:NATO :    2 INDEPENDENT AND    2 TOTAL ATOMS IN UNITCELL
       SUBSTANCE: MgO_convergence                                             

       LATTICE                      = F   
:POT  : POTENTIAL OPTION EX_PBE EC_PBE VX_PBE VC_PBE
:LAT  : LATTICE CONSTANTS=  7.95801  7.95801  7.95801    1.571    1.571    1.571
:VOL  : UNIT CELL VOLUME =     125.99528
       MODE OF CALCULATION IS       = RELA
       NON-SPINPOLARIZED CALCULATION
:IFFT  : FFT-parameters:   64   64   64 Factor: 2.00


   CONVERGENCE PARAMETER FOR PSEUDOCHARGE: NCON=  9
   MAXIMAL VALUE OF RMT(JATOM)*ABSK(NKK) : RK  =23.60520


:VKCOUL :  VK-COUL convergence: 0.994E-06
       ATOMNUMBER=  1 Mg1        VCOUL-ZERO =  0.18732E+00
       ATOMNUMBER=  2 O 1        VCOUL-ZERO =  0.44895E+00
:FIT001: LUSE= 13 SIGMA OF V-XC FIT FOR ATOM  1  0.1081260E-01
:FIT001: LUSE= 13 SIGMA OF V-XC FIT FOR ATOM  1  0.1081260E-01
:FIT002: LUSE= 13 SIGMA OF V-XC FIT FOR ATOM  2  0.2672228E-03
:FIT002: LUSE= 13 SIGMA OF V-XC FIT FOR ATOM  2  0.2672228E-03
:DEN  : DENSITY INTEGRAL  =          -268.16355791   (Ry)
       ELS_POTENTIAL_AT Z=0 and Z=0.5:  -1.97146  -1.97146
       ELS_POTENTIAL_AT Y=0 and Y=0.5:   0.00000   0.00000
:VZERO:v0,v0c,v0x  -3.18058  -1.97146  -1.20912 v5,v5c,v5x  -3.18058  -1.97146  -1.20912
:VZERY:v0,v0c,v0x  -0.76695   0.00000  -0.76695 v5,v5c,v5x  -0.76695   0.00000  -0.76695
:VZERX:v0,v0c,v0x  -0.76695   0.00000  -0.76695 v5,v5c,v5x  -0.76695   0.00000  -0.76695
:LMAX-WF:   10   Non-Spherical LMAX:   4

          ATOMIC SPHERE DEPENDENT PARAMETERS FOR ATOM  Mg1       
:e__0001: OVERALL ENERGY PARAMETER IS   -0.0048
          OVERALL BASIS SET ON ATOM IS LAPW
:E0_0001: E( 0)=   -0.0048
             APW+lo
:E0_0001: E( 0)=   -5.0295   E(BOTTOM)=   -5.092   E(TOP)=   -4.967  1  2   149
             LOCAL ORBITAL
:E1_0001: E( 1)=   -0.0048
             APW+lo
:E1_0001: E( 1)=   -2.6008   E(BOTTOM)=   -2.713   E(TOP)=   -2.489  0  1   152
             LOCAL ORBITAL

          ATOMIC SPHERE DEPENDENT PARAMETERS FOR ATOM  O 1       
:e__0002: OVERALL ENERGY PARAMETER IS   -0.0048
          OVERALL BASIS SET ON ATOM IS LAPW
:E0_0002: E( 0)=    0.3952
             APW+lo
:E0_0002: E( 0)=   -0.9191   E(BOTTOM)=   -1.543   E(TOP)=   -0.296  1  2   160
             LOCAL ORBITAL
:E1_0002: E( 1)=   -0.0048
             APW+lo

       K=   0.00000   0.00000   0.00000            1
:RKM  : MATRIX SIZE   194LOs:  13  RKM= 8.84  WEIGHT= 1.00  PGR:    
       EIGENVALUES ARE:
:EIG00001:      -5.0161908   -2.5712259   -2.5712259   -2.5712259   -0.9880159
:EIG00006:       0.2800323    0.2800323    0.2800323    0.6303893    1.4481577
:EIG00011:       1.4481577    1.4481577
       ********************************************************

:KPT   :      NUMBER OF K-POINTS:    72
       Insulator, EF-inconsistency corrected
:GAP (global)   :  0.350357 Ry =     4.767 eV (accurate value if proper k-mesh)
         Bandranges (emin - emax) and occupancy:
:BAN00001:   1   -5.016191   -5.015263  2.00000000
:BAN00002:   2   -2.577745   -2.571226  2.00000000
:BAN00003:   3   -2.574965   -2.571226  2.00000000
:BAN00004:   4   -2.573595   -2.571226  2.00000000
:BAN00005:   5   -0.988016   -0.871364  2.00000000
:BAN00006:   6   -0.056648    0.280032  2.00000000
:BAN00007:   7    0.057963    0.280032  2.00000000
:BAN00008:   8    0.151343    0.280032  2.00000000
:BAN00009:   9    0.630389    1.144008  0.00000000
:BAN00010:  10    1.014710    1.448158  0.00000000
:BAN00011:  11    1.185666    1.515803  0.00000000
:BAN00012:  12    1.427194    1.687490  0.00000000
:BAN00013:  13    1.579651    1.691160  0.00000000
        Energy to separate low and high energystates:   -0.10665


:NOE  : NUMBER OF ELECTRONS          =   16.000

:FER  : F E R M I - ENERGY(TETRAH.M.)=   0.2800322538
:GMA  : POTENTIAL AND CHARGE CUT-OFF  12.00 Ry**.5

:POS001: ATOM    1 X,Y,Z = 0.00000 0.00000 0.00000  MULT= 1  ZZ= 12.000  Mg1       

       LMMAX  5
       LM=   0 0  4 0  4 4  6 0  6 4

:CHA001: TOTAL VALENCE CHARGE INSIDE SPHERE   1 =   8.3715    (RMT=  1.9800 )
:PCS001: PARTIAL CHARGES SPHERE =  1 S,P,D,F,      D-EG,D-T2G 
:QTL001: 2.1333 6.1311 0.0875 0.0159 0.0000 0.0000 0.0000 0.0637 0.0238 0.0000 0.0000 0.0000
        Q-s-low E-s-low   Q-p-low E-p-low   Q-d-low E-d-low   Q-f-low E-f-low
:EPL001:  2.0115 -4.9816    5.9756 -2.5670    0.0097 -0.8867    0.0021 -0.9000
        Q-s-hi  E-s-hi    Q-p-hi  E-p-hi    Q-d-hi  E-d-hi    Q-f-hi  E-f-hi 
:EPH001:  0.1218  0.0418    0.1556  0.1172    0.0777  0.1596    0.0138  0.1784

:POS002: ATOM    2 X,Y,Z = 0.50000 0.00000 0.00000  MULT= 1  ZZ=  8.000  O 1       

       LMMAX  5
       LM=   0 0  4 0  4 4  6 0  6 4

:CHA002: TOTAL VALENCE CHARGE INSIDE SPHERE   2 =   6.2768    (RMT=  1.9800 )
:PCS002: PARTIAL CHARGES SPHERE =  2 S,P,D,F,      D-EG,D-T2G 
:QTL002: 1.7959 4.4670 0.0108 0.0023 0.0000 0.0000 0.0000 0.0039 0.0069 0.0000 0.0000 0.0000
        Q-s-low E-s-low   Q-p-low E-p-low   Q-d-low E-d-low   Q-f-low E-f-low
:EPL002:  1.7638 -0.9015    0.0057 -2.0929    0.0023 -2.5635    0.0010 -2.7124
        Q-s-hi  E-s-hi    Q-p-hi  E-p-hi    Q-d-hi  E-d-hi    Q-f-hi  E-f-hi 
:EPH002:  0.0321  0.0720    4.4613  0.1485    0.0086  0.1298    0.0013  0.1640

:CHA  : TOTAL VALENCE CHARGE INSIDE UNIT CELL =      16.000000

:SUM  : SUM OF EIGENVALUES =         -26.449459586


        1.ATOM      Mg1                   1 CORE STATES
:1S 001: 1S                 -91.718894528 Ry

        2.ATOM      O 1                   1 CORE STATES
:1S 002: 1S                 -36.691273111 Ry
:CINT001 Core Integral Atom   1    2.000000
:CINT002 Core Integral Atom   2    2.000000

       DENSITY AT NUCLEUS
        JATOM        VALENCE       SEMI-CORE          CORE           TOTAL
:RTO001:   1       70.660261        0.000000     1081.940348     1152.600609
:RTO002:   2       14.749782        0.000000      304.026756      318.776537
     
       CHARGES OF NEW CHARGE DENSITY
:NTO   : INTERSTITIAL CHARGE =     1.351682
:NPC   : PW Pseudocharge     =     5.381429
:NTO001: CHARGE SPHERE  1    =    10.371472
:NTO002: CHARGE SPHERE  2    =     8.276841

:NEC01: NUCLEAR AND ELECTRONIC CHARGE     20.00000    20.00000
     
       CHARGES OF OLD CHARGE DENSITY
:OTO   : INTERSTITIAL CHARGE =     1.379379
:OPC   : PW Pseudocharge     =     5.305914
:OTO001: CHARGE SPHERE  1    =    10.406299
:OTO002: CHARGE SPHERE  2    =     8.214322

:NEC02: NUCLEAR AND ELECTRONIC CHARGE     20.00000    20.00000
     
       CONVERGENCE TEST
:DTO001: DIFFERENCE IN SPHERE  1 =  0.0332962
:DTO002: DIFFERENCE IN SPHERE  2 =  0.0604918

:DIS  :  CHARGE DISTANCE       ( 0.0604918 for atom    2 spin 1)      0.0468940
 PW Mixed is           65
 
******************************************************
* MULTISECANT MIXING VER9 RELEASE 10.4.0              *
* Standard Mode with controls                        *
* Fixed density scale                                *
* Regularization       1.000E-04                     *
* Trust Upper Limit    5.000E+00                     *
* Max Number of Memory Steps    8                    *
******************************************************
 
:PWTMP   6.0965E+01  1.2800E+02  1.2600E+02
:PLANE:  PW TOTAL      2.1473 DISTAN   5.23E-02  2.43E+00 %
:CHARG:  CLM/ATOM     35.3284 DISTAN   3.58E-02  1.01E-01 %
 
Step History
        DMIX         DMIXT        Red     Pred      Trust     Lambda    MagRel    MagAbs     Beta
  1   3.5000E-02   3.5000E-02 -1.00E+00  1.00E+00 -1.00E+01  1.00E+00  3.50E-02  3.50E-02  1.00E+00
  2   3.5000E-02   3.5000E-02  7.23E-01  1.00E+00 -1.00E+01  1.00E+00  3.50E-02  4.16E-02  1.00E+00
  3   4.2884E-02   4.2884E-02  9.58E-01  1.00E+00 -1.00E+01  2.88E-01  4.29E-02  3.69E-02  1.00E+00
  4   3.2877E-02   3.2877E-02  9.34E-01  8.25E-01  2.98E-01  1.31E+00  6.78E-02  5.58E-02  8.00E-01
  5   8.2193E-02   1.8402E-02  7.67E-01  6.57E-01  3.37E-01  1.64E+00  9.25E-02  7.12E-02  1.00E+00
  6   5.1227E-02   3.3755E-02  5.88E-01  5.87E-01  4.39E-01  2.29E+00  1.79E-01  1.06E-01  1.00E+00
  7   1.2807E-01   1.2256E-01 -1.00E+00  2.68E-01  5.86E-01  1.00E+00  5.86E-01  2.03E-01  1.00E+00
:JACOBIANS    1.183E+00   6.152E-01
  
:NORMS:  1/Froebius, Min, Max, Used   0.5568E+00  0.4647E+00  0.1058E+01  0.6130E+00
:INFO :  Number of Memory Steps    6 Skipping    0
:INFO :  SLambda=    0.8313054636  Max    0.8313054636
:PREDicted Charge, CTotal, PW Trust    1.925E-01   8.893E-02   4.856E-02
:PREDicted DMix, Beta, BLim   3.1449E-01  1.3878E+00  1.2267E+00

Eigenvalues, unscaled except for SY+YY
   #     SY Real        SY Imag          SS             YY         SY+YY Real      SY+YY Imag
   1   1.787599E+00   0.000000E+00   1.349122E+00   5.453893E+00   6.945959E+00   0.000000E+00
   2   5.527428E-01   0.000000E+00   4.965050E-01   5.138284E-01   9.658605E-01   0.000000E+00
   3   2.440319E-02   0.000000E+00   1.419783E-02   3.224045E-02   5.396509E-02   0.000000E+00
   4   1.716448E-06   0.000000E+00   2.512120E-07   3.604974E-05   4.037194E-05   0.000000E+00
   5  -5.428569E-16   0.000000E+00   1.445220E-08   1.951604E-06   2.398711E-06   0.000000E+00
   6  -1.070767E-08   0.000000E+00   1.940511E-17   1.165639E-07   1.246315E-07   0.000000E+00
 
:INFO :  Singular value  6.951E+00 Weight  1.000E+00 Projection  2.057E-02
:INFO :  Singular value  9.657E-01 Weight  1.000E+00 Projection  2.847E-02
:INFO :  Singular value  5.394E-02 Weight  9.999E-01 Projection -4.198E-01
:INFO :  Singular value  4.038E-05 Weight  5.451E-03 Projection  1.118E-02
:INFO :  Singular value  2.399E-06 Weight  1.934E-05 Projection -3.333E-04
:INFO :  Singular value  1.246E-07 Weight  5.221E-08 Projection -1.051E-06
:RANK :  ACTIVE   3.01/6  =  50.09 % ; YY RANK   3.00/6  =  50.07 %
 
:BLIM :  VZERO Control Off
:TRUST:  Step 8.54E-01  Charge 2.22E-01 (e) CTO  2.50E-01 (e) PW  3.50E-01 (e)
:DTRUS:  Lambda    9.983E-02 Increment    7.276E-12 Iterations    98 DMIX    1.988E-01
:INFOA:  Angle SubSpace to MSR1      2.25
:DIRM :  MEMORY  6/8  SCALE   1.000 RED  0.26 PRED  0.27 NEXT  0.37 
:INFO :  Limited by Atoms F by Step T

:TRAVE:  Charge 7.75E-02 (e) CTO  3.81E-02 (e) PW  2.90E-02 (e)
:DIRP :  |MSR1|= 5.013E-02 |PRATT|= 5.227E-02 ANGLE=  26.4 DEGREES
:DIRQ :  |MSR1|= 5.671E-02 |PRATT|= 7.152E-02 ANGLE=  15.9 DEGREES
:DIRT :  |MSR1|= 7.569E-02 |PRATT|= 8.858E-02 ANGLE=  21.3 DEGREES
:MIX  :   MSD1   REGULARIZATION:  5.45E-04 GREED: 0.20304  LMStep 0.86  0.8544 Step           
     
       CHARGES OF MIXED CHARGE DENSITY
:CTO   : INTERSTITIAL CHARGE =     1.368739
:CPC   : PW Pseudocharge     =     5.340992
:CTO001: CHARGE SPHERE  1    =    10.382760
:CTO002: CHARGE SPHERE  2    =     8.248500

:NEC03: NUCLEAR AND ELECTRONIC CHARGE     20.00000    20.00000

PW CHANGE     H    K    L      Current       Change    Residue
:PTO001:      0    0    0  5.32538357E-02  1.940E-04  3.797E-04
:PTO002:     -1   -1   -1 -9.17548855E-02  1.442E-04 -5.914E-04
:PTO003:      0    0   -2  9.80435659E-02  2.093E-04  1.801E-03
:PTO004:      0   -2   -2  7.26289765E-02 -3.028E-03 -1.722E-03
:PTO005:     -1   -1   -3 -1.17506208E-02  5.785E-03  6.398E-03
:PTO006:     -2   -2   -2  1.69431839E-02 -1.966E-03 -1.602E-03
:PTO007:      0    0   -4  4.34148453E-03 -8.277E-04 -6.595E-04
:PTO008:     -1   -3   -3  9.86449460E-03  1.425E-03  1.582E-03
:PTO009:      0   -2   -4 -1.34325208E-03 -2.504E-03 -2.372E-03
:PTO010:     -2   -2   -4 -7.79247963E-03 -1.617E-03 -1.751E-03
:PTO011:     -3   -3   -3  2.23996715E-03  2.672E-05  3.194E-05
:PTO012:     -1   -1   -5  6.06065943E-03 -3.692E-05 -8.977E-05

:ENE  : ********** TOTAL ENERGY IN Ry =         -551.43335277

 Flat Integration
 New Mode for Coulomb Integral
 Consistent 3/8+Simpson combinations
 Extension of core to zero
 LDM version in phi
 Fifth-order quadrature in outwin


            ---------
:ITE008:  8. ITERATION
            ---------

:NATO :    2 INDEPENDENT AND    2 TOTAL ATOMS IN UNITCELL
       SUBSTANCE: MgO_convergence                                             

       LATTICE                      = F   
:POT  : POTENTIAL OPTION EX_PBE EC_PBE VX_PBE VC_PBE
:LAT  : LATTICE CONSTANTS=  7.95801  7.95801  7.95801    1.571    1.571    1.571
:VOL  : UNIT CELL VOLUME =     125.99528
       MODE OF CALCULATION IS       = RELA
       NON-SPINPOLARIZED CALCULATION
:IFFT  : FFT-parameters:   64   64   64 Factor: 2.00


   CONVERGENCE PARAMETER FOR PSEUDOCHARGE: NCON=  9
   MAXIMAL VALUE OF RMT(JATOM)*ABSK(NKK) : RK  =23.60520


:VKCOUL :  VK-COUL convergence: 0.996E-06
       ATOMNUMBER=  1 Mg1        VCOUL-ZERO =  0.18707E+00
       ATOMNUMBER=  2 O 1        VCOUL-ZERO =  0.45890E+00
:FIT001: LUSE= 13 SIGMA OF V-XC FIT FOR ATOM  1  0.9316744E-02
:FIT001: LUSE= 13 SIGMA OF V-XC FIT FOR ATOM  1  0.9316744E-02
:FIT002: LUSE= 13 SIGMA OF V-XC FIT FOR ATOM  2  0.1776041E-03
:FIT002: LUSE= 13 SIGMA OF V-XC FIT FOR ATOM  2  0.1776041E-03
:DEN  : DENSITY INTEGRAL  =          -268.24468773   (Ry)
       ELS_POTENTIAL_AT Z=0 and Z=0.5:  -1.98220  -1.98220
       ELS_POTENTIAL_AT Y=0 and Y=0.5:   0.00000   0.00000
:VZERO:v0,v0c,v0x  -3.19989  -1.98220  -1.21769 v5,v5c,v5x  -3.19989  -1.98220  -1.21769
:VZERY:v0,v0c,v0x  -0.76530   0.00000  -0.76530 v5,v5c,v5x  -0.76530   0.00000  -0.76530
:VZERX:v0,v0c,v0x  -0.76530   0.00000  -0.76530 v5,v5c,v5x  -0.76530   0.00000  -0.76530
:LMAX-WF:   10   Non-Spherical LMAX:   4

          ATOMIC SPHERE DEPENDENT PARAMETERS FOR ATOM  Mg1       
:e__0001: OVERALL ENERGY PARAMETER IS    0.0518
          OVERALL BASIS SET ON ATOM IS LAPW
:E0_0001: E( 0)=    0.0518
             APW+lo
:E0_0001: E( 0)=   -5.0321   E(BOTTOM)=   -5.094   E(TOP)=   -4.970  1  2   156
             LOCAL ORBITAL
:E1_0001: E( 1)=    0.0518
             APW+lo
:E1_0001: E( 1)=   -2.6027   E(BOTTOM)=   -2.714   E(TOP)=   -2.491  0  1   148
             LOCAL ORBITAL

          ATOMIC SPHERE DEPENDENT PARAMETERS FOR ATOM  O 1       
:e__0002: OVERALL ENERGY PARAMETER IS    0.0518
          OVERALL BASIS SET ON ATOM IS LAPW
:E0_0002: E( 0)=    0.4518
             APW+lo
:E0_0002: E( 0)=   -0.9067   E(BOTTOM)=   -1.531   E(TOP)=   -0.282  1  2   165
             LOCAL ORBITAL
:E1_0002: E( 1)=    0.0518
             APW+lo

       K=   0.00000   0.00000   0.00000            1
:RKM  : MATRIX SIZE   194LOs:  13  RKM= 8.84  WEIGHT= 1.00  PGR:    
       EIGENVALUES ARE:
:EIG00001:      -5.0188454   -2.5732414   -2.5732414   -2.5732414   -0.9770512
:EIG00006:       0.2910967    0.2910967    0.2910967    0.6400674    1.4555007
:EIG00011:       1.4555007    1.4555007    1.7394876
       ********************************************************

:KPT   :      NUMBER OF K-POINTS:    72
:GAP (global)   :  0.348971 Ry =     4.748 eV (accurate value if proper k-mesh)
         Bandranges (emin - emax) and occupancy:
:BAN00001:   1   -5.018845   -5.017920  2.00000000
:BAN00002:   2   -2.579703   -2.573241  2.00000000
:BAN00003:   3   -2.576937   -2.573241  2.00000000
:BAN00004:   4   -2.575596   -2.573241  2.00000000
:BAN00005:   5   -0.977051   -0.859714  2.00000000
:BAN00006:   6   -0.047255    0.291097  2.00000000
:BAN00007:   7    0.067855    0.291097  2.00000000
:BAN00008:   8    0.161516    0.291097  2.00000000
:BAN00009:   9    0.640067    1.153563  0.00000000
:BAN00010:  10    1.022073    1.455501  0.00000000
:BAN00011:  11    1.192389    1.523099  0.00000000
:BAN00012:  12    1.434575    1.711157  0.00000000
:BAN00013:  13    1.586776    1.739488  0.00000000
        Energy to separate low and high energystates:   -0.09726


:NOE  : NUMBER OF ELECTRONS          =   16.000

:FER  : F E R M I - ENERGY(TETRAH.M.)=   0.2911786922
:GMA  : POTENTIAL AND CHARGE CUT-OFF  12.00 Ry**.5

:POS001: ATOM    1 X,Y,Z = 0.00000 0.00000 0.00000  MULT= 1  ZZ= 12.000  Mg1       

       LMMAX  5
       LM=   0 0  4 0  4 4  6 0  6 4

:CHA001: TOTAL VALENCE CHARGE INSIDE SPHERE   1 =   8.3747    (RMT=  1.9800 )
:PCS001: PARTIAL CHARGES SPHERE =  1 S,P,D,F,      D-EG,D-T2G 
:QTL001: 2.1344 6.1325 0.0881 0.0160 0.0000 0.0000 0.0000 0.0641 0.0240 0.0000 0.0000 0.0000
        Q-s-low E-s-low   Q-p-low E-p-low   Q-d-low E-d-low   Q-f-low E-f-low
[...]
:QTL001: 2.1348 6.1331 0.0883 0.0160 0.0000 0.0000 0.0000 0.0643 0.0240 0.0000 0.0000 0.0000
        Q-s-low E-s-low   Q-p-low E-p-low   Q-d-low E-d-low   Q-f-low E-f-low
:EPL001:  2.0118 -4.9875    5.9762 -2.5727    0.0098 -0.8724    0.0021 -0.8859
        Q-s-hi  E-s-hi    Q-p-hi  E-p-hi    Q-d-hi  E-d-hi    Q-f-hi  E-f-hi 
:EPH001:  0.1230  0.0536    0.1569  0.1296    0.0785  0.1722    0.0139  0.1910

:POS002: ATOM    2 X,Y,Z = 0.50000 0.00000 0.00000  MULT= 1  ZZ=  8.000  O 1       

       LMMAX  5
       LM=   0 0  4 0  4 4  6 0  6 4

:CHA002: TOTAL VALENCE CHARGE INSIDE SPHERE   2 =   6.2649    (RMT=  1.9800 )
:PCS002: PARTIAL CHARGES SPHERE =  2 S,P,D,F,      D-EG,D-T2G 
:QTL002: 1.7943 4.4566 0.0109 0.0023 0.0000 0.0000 0.0000 0.0039 0.0070 0.0000 0.0000 0.0000
        Q-s-low E-s-low   Q-p-low E-p-low   Q-d-low E-d-low   Q-f-low E-f-low
:EPL002:  1.7617 -0.8874    0.0057 -2.0814    0.0022 -2.5630    0.0010 -2.7158
        Q-s-hi  E-s-hi    Q-p-hi  E-p-hi    Q-d-hi  E-d-hi    Q-f-hi  E-f-hi 
:EPH002:  0.0326  0.0841    4.4509  0.1609    0.0087  0.1423    0.0013  0.1768

:CHA  : TOTAL VALENCE CHARGE INSIDE UNIT CELL =      16.000000

:SUM  : SUM OF EIGENVALUES =         -26.395374183


        1.ATOM      Mg1                   1 CORE STATES
:1S 001: 1S                 -91.722453493 Ry

        2.ATOM      O 1                   1 CORE STATES
:1S 002: 1S                 -36.689888701 Ry
:CINT001 Core Integral Atom   1    2.000000
:CINT002 Core Integral Atom   2    2.000000

       DENSITY AT NUCLEUS
        JATOM        VALENCE       SEMI-CORE          CORE           TOTAL
:RTO001:   1       70.665133        0.000000     1081.954415     1152.619548
:RTO002:   2       14.720069        0.000000      304.073858      318.793927
     
       CHARGES OF NEW CHARGE DENSITY
:NTO   : INTERSTITIAL CHARGE =     1.359143
:NPC   : PW Pseudocharge     =     5.355025
:NTO001: CHARGE SPHERE  1    =    10.375923
:NTO002: CHARGE SPHERE  2    =     8.264929

:NEC01: NUCLEAR AND ELECTRONIC CHARGE     20.00000    20.00000
     
       CHARGES OF OLD CHARGE DENSITY
:OTO   : INTERSTITIAL CHARGE =     1.359022
:OPC   : PW Pseudocharge     =     5.355475
:OTO001: CHARGE SPHERE  1    =    10.375743
:OTO002: CHARGE SPHERE  2    =     8.265235

:NEC02: NUCLEAR AND ELECTRONIC CHARGE     20.00000    20.00000
     
       CONVERGENCE TEST
:DTO001: DIFFERENCE IN SPHERE  1 =  0.0001578
:DTO002: DIFFERENCE IN SPHERE  2 =  0.0004106

:DIS  :  CHARGE DISTANCE       ( 0.0004106 for atom    2 spin 1)      0.0002842
 PW Mixed is           65
 
******************************************************
* MULTISECANT MIXING VER9 RELEASE 10.4.0              *
* Standard Mode with controls                        *
* Fixed density scale                                *
* Regularization       1.000E-04                     *
* Trust Upper Limit    5.000E+00                     *
* Max Number of Memory Steps    8                    *
******************************************************
 
:PWTMP   6.0965E+01  1.2800E+02  1.2600E+02
:PLANE:  PW TOTAL      2.1421 DISTAN   5.10E-04  2.38E-02 %
:CHARG:  CLM/ATOM     35.3148 DISTAN   2.21E-04  6.26E-04 %
 
Step History
        DMIX         DMIXT        Red     Pred      Trust     Lambda    MagRel    MagAbs     Beta
  3   4.2884E-02   4.2884E-02  9.58E-01  1.00E+00 -1.00E+01  2.88E-01  4.29E-02  3.69E-02  1.00E+00
  4   3.2877E-02   3.2877E-02  9.34E-01  8.25E-01  2.98E-01  1.31E+00  6.78E-02  5.58E-02  8.00E-01
  5   8.2193E-02   1.8402E-02  7.67E-01  6.57E-01  3.37E-01  1.64E+00  9.25E-02  7.12E-02  1.00E+00
  6   5.1227E-02   3.3755E-02  5.88E-01  5.87E-01  4.39E-01  2.29E+00  1.79E-01  1.06E-01  1.00E+00
  7   1.2807E-01   1.2256E-01  2.55E-01  2.68E-01  5.86E-01  8.31E-01  5.86E-01  2.03E-01  1.00E+00
  8   2.0304E-01   1.9878E-01  3.04E-01  3.72E-01  8.54E-01  7.21E-01  8.54E-01  7.57E-02  1.00E+00
  9   2.1965E-01   2.1965E-01  5.23E-01  5.59E-01  1.43E+00  1.08E+00  7.86E-01  2.12E-02  1.00E+00
 10   3.5000E-01   3.5000E-01  1.84E-01  3.78E-01  1.91E+00  6.73E-01  8.42E-01  1.19E-02  1.00E+00
 11   3.5000E-01   3.5000E-01 -1.00E+00  2.04E-01  3.87E+00  1.00E+00  7.95E-01  2.07E-03  1.00E+00
:JACOBIANS    1.826E+00   1.677E+00
  
:NORMS:  1/Froebius, Min, Max, Used   0.8329E+00  0.6121E+00  0.1110E+01  0.9089E+00
:INFO :  Number of Memory Steps    8 Skipping    2
:INFO :  SLambda=    1.0096361954  Max    1.0096361954
:PREDicted Charge, CTotal, PW Trust    9.132E-04   9.231E-04   5.851E-04
:PREDicted DMix, Beta, BLim   2.0511E-01  1.0522E+00  3.2974E+00

Eigenvalues, unscaled except for SY+YY
   #     SY Real        SY Imag          SS             YY         SY+YY Real      SY+YY Imag
   1   2.875582E+00   0.000000E+00   3.664898E+00   4.436597E+00   7.061273E+00   0.000000E+00
   2   1.568442E+00   0.000000E+00   1.249192E+00   1.913873E+00   3.653234E+00   0.000000E+00
   3   5.556921E-01   0.000000E+00   3.334616E-01   9.601480E-01   1.625124E+00   0.000000E+00
   4   3.772009E-01   0.000000E+00   2.223788E-01   5.117415E-01   8.976800E-01   0.000000E+00
   5   1.315378E-01   0.000000E+00   7.928739E-02   1.775866E-01   3.241743E-01   0.000000E+00
   6   1.073737E-05   0.000000E+00   1.961195E-06   5.189624E-05   5.830284E-05   0.000000E+00
   7   9.717435E-07   0.000000E+00   4.959290E-07   1.951374E-06   3.220636E-06   0.000000E+00
   8   1.599050E-08   0.000000E+00   3.784799E-09   7.206924E-08   9.123318E-08   0.000000E+00
 
:INFO :  Singular value  7.137E+00 Weight  1.000E+00 Projection -6.460E-05
:INFO :  Singular value  3.622E+00 Weight  1.000E+00 Projection -2.576E-04
:INFO :  Singular value  1.624E+00 Weight  1.000E+00 Projection  2.244E-05
:INFO :  Singular value  8.978E-01 Weight  1.000E+00 Projection -2.895E-04
:INFO :  Singular value  3.238E-01 Weight  1.000E+00 Projection  7.740E-04
:INFO :  Singular value  5.850E-05 Weight  1.709E-02 Projection -7.311E-04
:INFO :  Singular value  3.210E-06 Weight  5.235E-05 Projection  7.663E-06
:INFO :  Singular value  9.123E-08 Weight  4.228E-08 Projection -4.635E-09
:RANK :  ACTIVE   5.02/8  =  62.71 % ; YY RANK   5.01/8  =  62.67 %
 
:BLIM :  VZERO Control Off
:TRUST:  Step 5.40E+00  Charge 1.42E-01 (e) CTO  1.28E-01 (e) PW  1.79E-01 (e)
:DIRM :  MEMORY  8/8  SCALE   1.000 RED  0.26 PRED  0.20 NEXT  0.59 
:TRAVE:  Charge 6.26E-03 (e) CTO  3.30E-03 (e) PW  3.39E-03 (e)
:DIRP :  |MSR1|= 3.907E-04 |PRATT|= 5.102E-04 ANGLE=  14.9 DEGREES
:DIRQ :  |MSR1|= 2.070E-04 |PRATT|= 4.418E-04 ANGLE=  32.1 DEGREES
:DIRT :  |MSR1|= 4.422E-04 |PRATT|= 6.749E-04 ANGLE=  25.1 DEGREES
:MIX  :   MSE1   REGULARIZATION:  4.44E-04 GREED: 0.25674  Newton 1.00  0.6551                
     
       CHARGES OF MIXED CHARGE DENSITY
:CTO   : INTERSTITIAL CHARGE =     1.359043
:CPC   : PW Pseudocharge     =     5.354921
:CTO001: CHARGE SPHERE  1    =    10.375838
:CTO002: CHARGE SPHERE  2    =     8.265119

:NEC03: NUCLEAR AND ELECTRONIC CHARGE     20.00000    20.00000

PW CHANGE     H    K    L      Current       Change    Residue
:PTO001:      0    0    0  5.32874244E-02 -4.233E-06 -2.427E-06
:PTO002:     -1   -1   -1 -9.08452714E-02  2.847E-05  3.876E-05
:PTO003:      0    0   -2  9.86119160E-02 -1.454E-05 -1.363E-05
:PTO004:      0   -2   -2  7.25099466E-02 -1.439E-05 -1.756E-05
:PTO005:     -1   -1   -3 -9.10513314E-03  2.358E-05  4.288E-05
:PTO006:     -2   -2   -2  1.67799179E-02 -3.148E-06 -3.068E-06
:PTO007:      0    0   -4  4.33362341E-03 -6.318E-07 -9.489E-08
:PTO008:     -1   -3   -3  1.04792789E-02  4.766E-06  8.231E-06
:PTO009:      0   -2   -4 -1.49206994E-03  2.726E-06  7.143E-06
:PTO010:     -2   -2   -4 -7.97102339E-03  4.301E-06  8.875E-06
:PTO011:     -3   -3   -3  2.24592132E-03 -8.745E-08 -2.873E-07
:PTO012:     -1   -1   -5  5.95584436E-03 -1.556E-06 -3.518E-06

:ENE  : ********** TOTAL ENERGY IN Ry =         -551.43315295

 Flat Integration
 New Mode for Coulomb Integral
 Consistent 3/8+Simpson combinations
 Extension of core to zero
 LDM version in phi
 Fifth-order quadrature in outwin


            ---------
:ITE012: 12. ITERATION
            ---------

:NATO :    2 INDEPENDENT AND    2 TOTAL ATOMS IN UNITCELL
       SUBSTANCE: MgO_convergence                                             

       LATTICE                      = F   
:POT  : POTENTIAL OPTION EX_PBE EC_PBE VX_PBE VC_PBE
:LAT  : LATTICE CONSTANTS=  7.95801  7.95801  7.95801    1.571    1.571    1.571
:VOL  : UNIT CELL VOLUME =     125.99528
       MODE OF CALCULATION IS       = RELA
       NON-SPINPOLARIZED CALCULATION
:IFFT  : FFT-parameters:   64   64   64 Factor: 2.00


   CONVERGENCE PARAMETER FOR PSEUDOCHARGE: NCON=  9
   MAXIMAL VALUE OF RMT(JATOM)*ABSK(NKK) : RK  =23.60520


:VKCOUL :  VK-COUL convergence: 0.989E-06
       ATOMNUMBER=  1 Mg1        VCOUL-ZERO =  0.18556E+00
       ATOMNUMBER=  2 O 1        VCOUL-ZERO =  0.46131E+00
:FIT001: LUSE= 13 SIGMA OF V-XC FIT FOR ATOM  1  0.9677697E-02
:FIT001: LUSE= 13 SIGMA OF V-XC FIT FOR ATOM  1  0.9677697E-02
:FIT002: LUSE= 13 SIGMA OF V-XC FIT FOR ATOM  2  0.2064110E-03
:FIT002: LUSE= 13 SIGMA OF V-XC FIT FOR ATOM  2  0.2064110E-03
:DEN  : DENSITY INTEGRAL  =          -268.21286135   (Ry)
       ELS_POTENTIAL_AT Z=0 and Z=0.5:  -1.97841  -1.97841
       ELS_POTENTIAL_AT Y=0 and Y=0.5:   0.00000   0.00000
:VZERO:v0,v0c,v0x  -3.20127  -1.97841  -1.22286 v5,v5c,v5x  -3.20127  -1.97841  -1.22286
:VZERY:v0,v0c,v0x  -0.76380   0.00000  -0.76380 v5,v5c,v5x  -0.76380   0.00000  -0.76380
:VZERX:v0,v0c,v0x  -0.76380   0.00000  -0.76380 v5,v5c,v5x  -0.76380   0.00000  -0.76380
:LMAX-WF:   10   Non-Spherical LMAX:   4

          ATOMIC SPHERE DEPENDENT PARAMETERS FOR ATOM  Mg1       
:e__0001: OVERALL ENERGY PARAMETER IS    0.0929
          OVERALL BASIS SET ON ATOM IS LAPW
:E0_0001: E( 0)=    0.0929
             APW+lo
:E0_0001: E( 0)=   -5.0359   E(BOTTOM)=   -5.098   E(TOP)=   -4.974  1  2   156
             LOCAL ORBITAL
:E1_0001: E( 1)=    0.0929
             APW+lo
:E1_0001: E( 1)=   -2.6065   E(BOTTOM)=   -2.718   E(TOP)=   -2.495  0  1   154
             LOCAL ORBITAL

          ATOMIC SPHERE DEPENDENT PARAMETERS FOR ATOM  O 1       
:e__0002: OVERALL ENERGY PARAMETER IS    0.0929
          OVERALL BASIS SET ON ATOM IS LAPW
:E0_0002: E( 0)=    0.4929
             APW+lo
:E0_0002: E( 0)=   -0.9040   E(BOTTOM)=   -1.529   E(TOP)=   -0.279  1  2   167
             LOCAL ORBITAL
:E1_0002: E( 1)=    0.0929
             APW+lo

       K=   0.00000   0.00000   0.00000            1
:RKM  : MATRIX SIZE   194LOs:  13  RKM= 8.84  WEIGHT= 1.00  PGR:    
       EIGENVALUES ARE:
:EIG00001:      -5.0226493   -2.5770765   -2.5770765   -2.5770765   -0.9746659
:EIG00006:       0.2933219    0.2933219    0.2933219    0.6422464    1.4566997
:EIG00011:       1.4566997    1.4566997    1.7426040
       ********************************************************

:KPT   :      NUMBER OF K-POINTS:    72
:GAP (global)   :  0.348925 Ry =     4.747 eV (accurate value if proper k-mesh)
         Bandranges (emin - emax) and occupancy:
:BAN00001:   1   -5.022649   -5.021725  2.00000000
:BAN00002:   2   -2.583506   -2.577076  2.00000000
:BAN00003:   3   -2.580743   -2.577076  2.00000000
:BAN00004:   4   -2.579425   -2.577076  2.00000000
:BAN00005:   5   -0.974666   -0.857091  2.00000000
:BAN00006:   6   -0.045498    0.293322  2.00000000
:BAN00007:   7    0.069750    0.293322  2.00000000
:BAN00008:   8    0.163462    0.293322  2.00000000
:BAN00009:   9    0.642246    1.155349  0.00000000
:BAN00010:  10    1.023066    1.456700  0.00000000
:BAN00011:  11    1.192888    1.524038  0.00000000
:BAN00012:  12    1.435621    1.710897  0.00000000
:BAN00013:  13    1.587388    1.782692  0.00000000
        Energy to separate low and high energystates:   -0.09550


:NOE  : NUMBER OF ELECTRONS          =   16.000

:FER  : F E R M I - ENERGY(TETRAH.M.)=   0.2934156903
:GMA  : POTENTIAL AND CHARGE CUT-OFF  12.00 Ry**.5

:POS001: ATOM    1 X,Y,Z = 0.00000 0.00000 0.00000  MULT= 1  ZZ= 12.000  Mg1       

       LMMAX  5
       LM=   0 0  4 0  4 4  6 0  6 4

:CHA001: TOTAL VALENCE CHARGE INSIDE SPHERE   1 =   8.3759    (RMT=  1.9800 )
:PCS001: PARTIAL CHARGES SPHERE =  1 S,P,D,F,      D-EG,D-T2G 
:QTL001: 2.1348 6.1331 0.0883 0.0160 0.0000 0.0000 0.0000 0.0643 0.0240 0.0000 0.0000 0.0000
        Q-s-low E-s-low   Q-p-low E-p-low   Q-d-low E-d-low   Q-f-low E-f-low
:EPL001:  2.0118 -4.9874    5.9762 -2.5727    0.0098 -0.8725    0.0021 -0.8859
        Q-s-hi  E-s-hi    Q-p-hi  E-p-hi    Q-d-hi  E-d-hi    Q-f-hi  E-f-hi 
:EPH001:  0.1230  0.0536    0.1569  0.1295    0.0785  0.1722    0.0139  0.1909

:POS002: ATOM    2 X,Y,Z = 0.50000 0.00000 0.00000  MULT= 1  ZZ=  8.000  O 1       

       LMMAX  5
       LM=   0 0  4 0  4 4  6 0  6 4

:CHA002: TOTAL VALENCE CHARGE INSIDE SPHERE   2 =   6.2651    (RMT=  1.9800 )
:PCS002: PARTIAL CHARGES SPHERE =  2 S,P,D,F,      D-EG,D-T2G 
:QTL002: 1.7943 4.4567 0.0109 0.0023 0.0000 0.0000 0.0000 0.0039 0.0070 0.0000 0.0000 0.0000
        Q-s-low E-s-low   Q-p-low E-p-low   Q-d-low E-d-low   Q-f-low E-f-low
:EPL002:  1.7617 -0.8875    0.0057 -2.0815    0.0022 -2.5631    0.0010 -2.7158
        Q-s-hi  E-s-hi    Q-p-hi  E-p-hi    Q-d-hi  E-d-hi    Q-f-hi  E-f-hi 
:EPH002:  0.0326  0.0840    4.4510  0.1609    0.0087  0.1422    0.0013  0.1767

:CHA  : TOTAL VALENCE CHARGE INSIDE UNIT CELL =      16.000000

:SUM  : SUM OF EIGENVALUES =         -26.395562394


        1.ATOM      Mg1                   1 CORE STATES
:1S 001: 1S                 -91.722373695 Ry

        2.ATOM      O 1                   1 CORE STATES
:1S 002: 1S                 -36.689990290 Ry
:CINT001 Core Integral Atom   1    2.000000
:CINT002 Core Integral Atom   2    2.000000

       DENSITY AT NUCLEUS
        JATOM        VALENCE       SEMI-CORE          CORE           TOTAL
:RTO001:   1       70.664753        0.000000     1081.954311     1152.619064
:RTO002:   2       14.720364        0.000000      304.073686      318.794050
     
       CHARGES OF NEW CHARGE DENSITY
:NTO   : INTERSTITIAL CHARGE =     1.359051
:NPC   : PW Pseudocharge     =     5.355027
:NTO001: CHARGE SPHERE  1    =    10.375881
:NTO002: CHARGE SPHERE  2    =     8.265063

:NEC01: NUCLEAR AND ELECTRONIC CHARGE     20.00000    20.00000
     
       CHARGES OF OLD CHARGE DENSITY
:OTO   : INTERSTITIAL CHARGE =     1.359043
:OPC   : PW Pseudocharge     =     5.354921
:OTO001: CHARGE SPHERE  1    =    10.375838
:OTO002: CHARGE SPHERE  2    =     8.265119

:NEC02: NUCLEAR AND ELECTRONIC CHARGE     20.00000    20.00000
     
       CONVERGENCE TEST
:DTO001: DIFFERENCE IN SPHERE  1 =  0.0000731
:DTO002: DIFFERENCE IN SPHERE  2 =  0.0002682

:DIS  :  CHARGE DISTANCE       ( 0.0002682 for atom    2 spin 1)      0.0001707
 PW Mixed is           65
 
******************************************************
* MULTISECANT MIXING VER9 RELEASE 10.4.0              *
* Standard Mode with controls                        *
* Fixed density scale                                *
* Regularization       1.000E-04                     *
* Trust Upper Limit    5.000E+00                     *
* Max Number of Memory Steps    8                    *
******************************************************
 
:PWTMP   6.0965E+01  1.2800E+02  1.2600E+02
:PLANE:  PW TOTAL      2.1418 DISTAN   1.45E-04  6.77E-03 %
:CHARG:  CLM/ATOM     35.3149 DISTAN   1.39E-04  3.94E-04 %
 
Step History
        DMIX         DMIXT        Red     Pred      Trust     Lambda    MagRel    MagAbs     Beta
  4   3.2877E-02   3.2877E-02  9.34E-01  8.25E-01  2.98E-01  1.31E+00  6.78E-02  5.58E-02  8.00E-01
  5   8.2193E-02   1.8402E-02  7.67E-01  6.57E-01  3.37E-01  1.64E+00  9.25E-02  7.12E-02  1.00E+00
  6   5.1227E-02   3.3755E-02  5.88E-01  5.87E-01  4.39E-01  2.29E+00  1.79E-01  1.06E-01  1.00E+00
  7   1.2807E-01   1.2256E-01  2.55E-01  2.68E-01  5.86E-01  8.31E-01  5.86E-01  2.03E-01  1.00E+00
  8   2.0304E-01   1.9878E-01  3.04E-01  3.72E-01  8.54E-01  7.21E-01  8.54E-01  7.57E-02  1.00E+00
  9   2.1965E-01   2.1965E-01  5.23E-01  5.59E-01  1.43E+00  1.08E+00  7.86E-01  2.12E-02  1.00E+00
 10   3.5000E-01   3.5000E-01  1.84E-01  3.78E-01  1.91E+00  6.73E-01  8.42E-01  1.19E-02  1.00E+00
 11   3.5000E-01   3.5000E-01  2.60E-01  2.04E-01  3.87E+00  1.01E+00  7.95E-01  2.07E-03  1.00E+00
 12   2.5674E-01   2.5674E-01 -1.00E+00  5.93E-01  5.40E+00  1.00E+00  6.55E-01  4.42E-04  1.00E+00
:JACOBIANS    2.004E+00   2.210E+00
  
:NORMS:  1/Froebius, Min, Max, Used   0.8539E+00  0.6769E+00  0.1122E+01  0.9455E+00
:INFO :  Number of Memory Steps    8 Skipping    3
:INFO :  SLambda=    1.0142520482  Max    1.0142520482
:PREDicted Charge, CTotal, PW Trust    1.760E-04   3.258E-05   1.554E-04
:PREDicted DMix, Beta, BLim   1.0105E+00  1.2875E+00  2.3091E+00

Eigenvalues, unscaled except for SY+YY
   #     SY Real        SY Imag          SS             YY         SY+YY Real      SY+YY Imag
   1   2.244565E+00   0.000000E+00   3.480460E+00   3.892954E+00   6.012964E+00   0.000000E+00
   2   2.439716E+00   0.000000E+00   1.566459E+00   2.336086E+00   4.873589E+00   0.000000E+00
   3   4.648957E-01   2.250501E-02   4.556622E-01   9.088320E-01   1.441853E+00   0.000000E+00
   4   4.648957E-01  -2.250501E-02   2.024396E-01   5.118347E-01   9.889879E-01   0.000000E+00
   5   2.100563E-01   0.000000E+00   1.209464E-01   3.427451E-01   5.825737E-01   0.000000E+00
   6   8.483143E-03   0.000000E+00   7.115382E-03   7.532788E-03   1.575578E-02   0.000000E+00
   7   3.910508E-06   0.000000E+00   1.002278E-06   1.554937E-05   1.864794E-05   0.000000E+00
   8   4.862664E-08   0.000000E+00   9.413543E-09   2.634825E-07   3.367480E-07   0.000000E+00
 
:INFO :  Singular value  6.219E+00 Weight  1.000E+00 Projection  1.763E-06
:INFO :  Singular value  4.722E+00 Weight  1.000E+00 Projection -3.985E-06
:INFO :  Singular value  1.443E+00 Weight  1.000E+00 Projection  3.081E-05
:INFO :  Singular value  9.880E-01 Weight  1.000E+00 Projection -6.085E-05
:INFO :  Singular value  5.816E-01 Weight  1.000E+00 Projection -7.658E-05
:INFO :  Singular value  1.576E-02 Weight  9.994E-01 Projection -3.509E-03
:INFO :  Singular value  1.865E-05 Weight  2.289E-03 Projection  1.272E-05
:INFO :  Singular value  3.367E-07 Weight  7.481E-07 Projection  2.509E-08
:RANK :  ACTIVE   6.00/8  =  75.02 % ; YY RANK   6.00/8  =  74.99 %
 
:BLIM :  VZERO Control Off
:TRUST:  Step 7.20E+00  Charge 1.14E-01 (e) CTO  1.02E-01 (e) PW  1.43E-01 (e)
:DIRM :  MEMORY  8/8  SCALE   1.000 RED  0.47 PRED  0.59 NEXT  0.13 
:TRAVE:  Charge 3.16E-03 (e) CTO  1.66E-03 (e) PW  1.74E-03 (e)
:DIRP :  |MSR1|= 1.389E-04 |PRATT|= 1.449E-04 ANGLE=   7.5 DEGREES
:DIRQ :  |MSR1|= 3.067E-04 |PRATT|= 2.785E-04 ANGLE=   6.0 DEGREES
:DIRT :  |MSR1|= 3.367E-04 |PRATT|= 3.140E-04 ANGLE=   7.0 DEGREES
:MIX  :   MSE1   REGULARIZATION:  3.89E-04 GREED: 0.35000  Newton 1.00  1.0723                
     
       CHARGES OF MIXED CHARGE DENSITY
:CTO   : INTERSTITIAL CHARGE =     1.359055
:CPC   : PW Pseudocharge     =     5.355067
:CTO001: CHARGE SPHERE  1    =    10.375876
:CTO002: CHARGE SPHERE  2    =     8.265069

:NEC03: NUCLEAR AND ELECTRONIC CHARGE     20.00000    20.00000

PW CHANGE     H    K    L      Current       Change    Residue
:PTO001:      0    0    0  5.32886804E-02  1.256E-06  1.088E-06
:PTO002:     -1   -1   -1 -9.08383546E-02  6.917E-06  8.336E-06
:PTO003:      0    0   -2  9.86155994E-02  3.683E-06  3.522E-06
:PTO004:      0   -2   -2  7.25087521E-02 -1.194E-06 -1.936E-07
:PTO005:     -1   -1   -3 -9.08755730E-03  1.758E-05  1.734E-05
:PTO006:     -2   -2   -2  1.67802885E-02  3.706E-07  9.940E-07
:PTO007:      0    0   -4  4.33388210E-03  2.587E-07  6.251E-07
:PTO008:     -1   -3   -3  1.04825279E-02  3.249E-06  3.226E-06
:PTO009:      0   -2   -4 -1.48846666E-03  3.603E-06  4.388E-06
:PTO010:     -2   -2   -4 -7.96692170E-03  4.102E-06  4.387E-06
:PTO011:     -3   -3   -3  2.24575600E-03 -1.653E-07 -1.534E-07
:PTO012:     -1   -1   -5  5.95408913E-03 -1.755E-06 -1.749E-06

:ENE  : ********** TOTAL ENERGY IN Ry =         -551.43315171

